----- GAMESS execution script 'rungms' -----
This job is running on host theomolsci-S2600STB
under operating system Linux at Wednesday 20 August 2025 02:04:54 PM IST
Available scratch disk space (Kbyte units) at beginning of the job is
Filesystem      1K-blocks       Used  Available Use% Mounted on
/dev/sda2      3844033552 1343455068 2305237480  37% /
GAMESS temporary binary files will be written to /home/theomolsci/scr
GAMESS supplementary output files will be written to /home/theomolsci/scr
Copying input file ./water-4_RHF_631g_temp.inp to your run's scratch directory...

 Distributed Data Interface kickoff program.
 Initiating 1 compute processes on 1 nodes to run the following command:
 /home/theomolsci/gamess/gamess.01.x water-4_RHF_631g_temp 

          *******************************************************
          *                                                     *
          *          GAMESS VERSION = 30 SEP 2020 (R2)          *
          *                                                     *
          *              doi.org/10.1063/5.0005188              *
          *                                                     *
          **************** 64 BIT LINUX VERSION *****************

  GAMESS HAS BEEN MADE POSSIBLE WITH IMPORTANT CONTRIBUTIONS FROM
  THE FOLLOWING INDIVIDUALS (IN ALPHABETICAL ORDER):

     IVANA ADAMOVIC, CHRISTINE AIKENS, TOMOKO AKAMA,
     YURI ALEXEEV, YURIKO AOKI, POOJA ARORA, TOSHIO ASADA,
     ANDREY ASADCHEV, KIM K. BALDRIDGE, PRADIPTA BANDYOPADHYAY,
     MARIA BARYSZ, ROB BELL, JONATHAN BENTZ, COLLEEN BERTONI,
     JERRY A. BOATZ, BRETT BODE, KURT BRORSEN, KURT R. BRORSEN,
     LAIMUTIS BYTAUTAS, CALEB CARLIN, LAURA CARRINGTON,
     GALINA CHABAN, BENOIT CHAMPAGNE, WEI CHEN, MAHITO CHIBA,
     DAN CHIPMAN, CHEOL HO CHOI, TANNER CULPITT,
     DIPAYAN DATTA, PAUL DAY, ALBERT DEFUSCO,
     NUWAN DESILVA, J. EMILIANO DEUSTUA,
     TIM DUDLEY, MICHEL DUPUIS, STEVEN T. ELBERT,
     DMITRI FEDOROV, ALEX FINDLATER, GRAHAM FLETCHER,
     MARK FREITAG, CHRISTIAN FRIEDL, DAVID GARMER,
     IGOR S. GERASIMOV, KURT GLAESEMANN, MARK S. GORDON,
     JEFFREY GOUR, FENG LONG GU, EMILIE B. GUIDEZ,
     ANASTASIA GUNINA, SHARON HAMMES-SCHIFFER, MASATAKE HARUTA,
     KIMIHIKO HIRAO, YASUHIRO IKABATA, TZVETELIN IORDANOV,
     STEPHAN IRLE, KAZUYA ISHIMURA, JOE IVANIC, FRANK JENSEN,
     JAN H. JENSEN, VISVALDAS KAIRYS, MUNEAKI KAMIYA,
     MICHIO KATOUDA, NAOAKI KAWAKAMI, DAN KEMP, BERNARD KIRTMAN,
     KAZUO KITAURA, MARIUSZ KLOBUKOWSKI, MASATO KOBAYASHI,
     PRAKASHAN KORAMBATH, JACEK KORCHOWIEC, SHIRO KOSEKI,
     KAROL KOWALSKI, JIMMY KROMANN, STANISLAW KUCHARSKI,
     HENRY KURTZ, SAROM SOK LEANG, HUI LI, SHUHUA LI, WEI LI,
     JESSE LUTZ, ALEKSANDR O. LYKHIN, MARCIN MAKOWSKI,
     JOANI MATO, NIKITA MATSUNAGA, BENEDETTA MENNUCCI,
     GRANT MERRILL, NORIYUKI MINEZAWA, VLADIMIR MIRONOV,
     EISAKU MIYOSHI, JOHN A. MONTGOMERY JR., HIROTOSHI MORI,
     JONATHAN MULLIN, MONIKA MUSIAL, SHIGERU NAGASE,
     TAKESHI NAGATA, HIROMI NAKAI, TAKAHITO NAKAJIMA,
     YUYA NAKAJIMA, HARUYUKI NAKANO, HIROYA NAKATA, SEAN NEDD,
     HEATHER NETZLOFF, KIET A. NGUYEN, YOSHIO NISHIMOTO,
     BOSILJKA NJEGIC, RYAN OLSON, MIKE PAK, ROBERTO PEVERATI,
     BUU PHAM, PIOTR PIECUCH, ANNA POMOGAEVA, DAVID POOLE,
     SPENCER PRUITT, OLIVIER QUINET, LUKE ROSKOP,
     KLAUS RUEDENBERG, ANDREW SAND, TOSAPORN SATTASATHUCHANA,
     NOZOMI SAWADA, MICHAEL W. SCHMIDT, PATRICK E. SCHNEIDER,
     JUNJI SEINO, PRACHI SHARMA, JUN SHEN, JIM SHOEMAKER,
     YINAN SHU, DEJUN SI, JONATHAN SKONE, LYUDMILA SLIPCHENKO,
     TONY SMITH, JIE SONG, MARK SPACKMAN, CASPER STEINMANN,
     WALT STEVENS, PEIFENG SU, SHUJUN SU, CHET SWALINA,
     TETSUYA TAKETSUGU, ZHEN TAO, NANDUN THELLAMUREGE
     SEIKEN TOKURA, JACOPO TOMASI, TSUGUKI TOUMA, TAKAO TSUNEDA,
     HIROAKI UMEDA, JORGE LUIS GALVEZ VALLEJO, YALI WANG,
     SIMON WEBB, AARON WEST, THERESA L. WINDUS, MARTA WLOCH,
     PENG XU, KIYOSHI YAGI, SUSUMU YANAGISAWA, YANG YANG,
     SOOHAENG YOO, TAKESHI YOSHIKAWA, FEDERICO ZAHARIEV,
     TOBY ZENG

  WHO ARE SUPPORTED BY THEIR INSTITUTION/UNIVERSITY/COMPANY/GROUP
  (IN ALPHABETICAL ORDER):

     EP ANALYTICS, FACULTES UNIVERSITAIRES NOTRE-DAME DE LA PAIX,
     INSTITUTE FOR MOLECULAR SCIENCE, IOWA STATE UNIVERSITY,
     JACKSON STATE UNIVERSITY, JOHANNES KEPLER UNIVERSITY LINZ,
     KYUSHU UNIVERSITY, MICHIGAN STATE UNIVERSITY,
     MIE UNIVERSITY, MOSCOW STATE UNIVERSITY,
     N. COPERNICUS UNIVERSITY, NAGOYA UNIVERSITY,
     NANJING UNIVERSITY, NAT. INST. OF ADVANCED INDUSTRIAL
     SCIENCE AND TECHNOLOGY, NATIONAL INST. OF STANDARDS AND
     TECHNOLOGY, NESMEYANOV INSTITUTE OF ORGANOELEMENT COMPOUNDS
     OF RUSSIAN ACADEMY OF SCIENCES, OSAKA PREFECTURE UNIVERSITY,
     PENNSYLVANIA STATE UNIVERSITY, TOKYO INSTITUTE OF TECHNOLOGY,
     UNIVERSITY OF AARHUS, UNIVERSITY OF ALBERTA,
     UNIVERSITY OF CALIFORNIA AT SANTA BARBARA,
     UNIVERSITY OF COPENHAGEN, UNIVERSITY OF IOWA,
     UNIVERSITY OF MEMPHIS, UNIVERSITY OF MINNESOTA,
     UNIVERSITY OF NEBRASKA, UNIVERSITY OF NEW ENGLAND,
     UNIVERSITY OF NOTRE DAME, UNIVERSITY OF PISA,
     UNIVERSITY OF SILESIA, UNIVERSITY OF TOKYO,
     UNIVERSITY OF ZURICH, WASEDA UNIVERSITY, YALE UNIVERSITY

  GAMESS SOFTWARE MANAGEMENT TEAM FOR THIS RELEASE:
     MARK S. GORDON (TEAM LEAD),
     BRETT BODE (SENIOR ADVISOR),
     GIUSEPPE BARCA,
     COLLEEN BERTONI,
     KRISTOPHER KEIPERT (ADVISOR),
     SAROM S. LEANG (DEVELOPMENT LEAD),
     BUU PHAM,
     JORGE LUIS GALVEZ VALLEJO (WEBSITE ADMINISTRATOR),
     PENG XU

 EXECUTION OF GAMESS BEGUN 14:04:54 20-AUG-2025    

            ECHO OF THE FIRST FEW INPUT CARDS -
 INPUT CARD> $CONTRL ISPHER=1 $END                                                          
 INPUT CARD> $SYSTEM MWORDS=1000 $END                                                       
 INPUT CARD> $CONTRL MAXIT=200 SCFTYP=RHF NPRINT=3 RUNTYP=ENERGY $END                       
 INPUT CARD> $GUESS GUESS=HUCKEL $END                                                       
 INPUT CARD> $DATA                                                                          
 INPUT CARD> !   molecule                                                                   
 INPUT CARD> C1                                                                             
 INPUT CARD>HYDROGEN  1                                                                     
 INPUT CARD>S   3                                                                           
 INPUT CARD>1         0.1873113696E+02       0.3349460434E-01                               
 INPUT CARD>2         0.2825394365E+01       0.2347269535E+00                               
 INPUT CARD>3         0.6401216923E+00       0.8137573261E+00                               
 INPUT CARD>S   1                                                                           
 INPUT CARD>1         0.1612777588E+00       1.0000000                                      
 INPUT CARD>                                                                                
 INPUT CARD>OXYGEN  8                                                                       
 INPUT CARD>S   6                                                                           
 INPUT CARD>1         0.5484671660E+04       0.1831074430E-02                               
 INPUT CARD>2         0.8252349460E+03       0.1395017220E-01                               
 INPUT CARD>3         0.1880469580E+03       0.6844507810E-01                               
 INPUT CARD>4         0.5296450000E+02       0.2327143360E+00                               
 INPUT CARD>5         0.1689757040E+02       0.4701928980E+00                               
 INPUT CARD>6         0.5799635340E+01       0.3585208530E+00                               
 INPUT CARD>L   3                                                                           
 INPUT CARD>1         0.1553961625E+02      -0.1107775495E+00       0.7087426823E-01        
 INPUT CARD>2         0.3599933586E+01      -0.1480262627E+00       0.3397528391E+00        
 INPUT CARD>3         0.1013761750E+01       0.1130767015E+01       0.7271585773E+00        
 INPUT CARD>L   1                                                                           
 INPUT CARD>1         0.2700058226E+00       0.1000000000E+01       0.1000000000E+01        
 INPUT CARD>                                                                                
 INPUT CARD> $END                                                                           
 INPUT CARD> $FMO                                                                           
 INPUT CARD> NBODY=2, NFRAG=2, NLAYER=1                                                     
 INPUT CARD> indat(1)= 0                                                                    
 INPUT CARD>      1        -6    0                                                          
 INPUT CARD>      7        -12    0                                                         
 INPUT CARD>                                                                                
 INPUT CARD> frgnam(1)=  001,002,                                                           
 INPUT CARD>    icharg(1)=0,0,                                                              
 INPUT CARD> $END                                                                           
 INPUT CARD> $FMOPRP                                                                        
 INPUT CARD>   IPIEDA=3, NPRINT=8, MAXIT=200                                                
 INPUT CARD> $END                                                                           
 INPUT CARD> $FMOXYZ                                                                        
 INPUT CARD>O 8 1.39868 -1.34774 -0.12067                                                   
 INPUT CARD>H 1 1.65578 -2.01444 0.52783                                                    
 INPUT CARD>H 1 0.43717 -1.49494 -0.27167                                                   
 INPUT CARD>O 8 1.31918 1.31006 0.57663                                                     
 INPUT CARD>H 1 1.47618 0.36556 0.34493                                                     
 INPUT CARD>H 1 1.99548 1.80066 0.09423                                                     
 1000000000 WORDS OF MEMORY AVAILABLE


     RUN TITLE
     ---------
  !   molecule                                                                   

 THE POINT GROUP OF THE MOLECULE IS C1      
 THE ORDER OF THE PRINCIPAL AXIS IS     0

 ATOM   ATOMIC CHARGE
 HYDROGEN    1.0
 OXYGEN      8.0

     ATOMIC BASIS SET LIBRARY
     ----------------
 THE CONTRACTED PRIMITIVE FUNCTIONS HAVE BEEN UNNORMALIZED
 THE CONTRACTED BASIS FUNCTIONS ARE NOW NORMALIZED TO UNITY

  SHELL TYPE  PRIMITIVE        EXPONENT          CONTRACTION COEFFICIENT(S)

 HYDROGEN  

      1   S       1            18.7311370    0.033494604341
      1   S       2             2.8253944    0.234726953509
      1   S       3             0.6401217    0.813757326131

      2   S       4             0.1612778    1.000000000000

 OXYGEN    

      3   S       5          5484.6716600    0.001831074430
      3   S       6           825.2349460    0.013950172200
      3   S       7           188.0469580    0.068445078098
      3   S       8            52.9645000    0.232714335992
      3   S       9            16.8975704    0.470192897984
      3   S      10             5.7996353    0.358520852987

      4   L      11            15.5396163   -0.110777549537    0.070874268235
      4   L      12             3.5999336   -0.148026262749    0.339752839123
      4   L      13             1.0137618    1.130767015375    0.727158577349

      5   L      14             0.2700058    1.000000000000    1.000000000000

 TOTAL NUMBER OF BASIS SET SHELLS             =    5
 NUMBER OF CARTESIAN GAUSSIAN BASIS FUNCTIONS =   11

 SELECTED MURRAY-HANDY-LAMING RADIAL GRID

 LEGACY BECKE'S FUZZY CELL METHOD

 SELECTED ORIGINAL BECKE'S PARTITION FUNCTION

     $CONTRL OPTIONS
     ---------------
 SCFTYP=RHF          RUNTYP=ENERGY       EXETYP=RUN     
 MPLEVL=       0     CITYP =NONE         CCTYP =NONE         VBTYP =NONE    
 DFTTYP=NONE         TDDFT =NONE    
 MULT  =       1     ICHARG=       0     NZVAR =       0     COORD =UNIQUE  
 PP    =NONE         RELWFN=NONE         LOCAL =NONE         NUMGRD=       F
 ISPHER=       1     NOSYM =       0     MAXIT =     200     UNITS =ANGS    
 PLTORB=       F     MOLPLT=       F     AIMPAC=       F     FRIEND=        
 NPRINT=       3     IREST =       0     GEOM  =INPUT   
 NORMF =       0     NORMP =       0     ITOL  =      24     ICUT  =      12
 INTTYP=BEST         GRDTYP=BEST         QMTTOL= 1.0E-06

     $SYSTEM OPTIONS
     ---------------
  REPLICATED MEMORY=  1000000000 WORDS (ON EVERY NODE).
 DISTRIBUTED MEMDDI=           0 MILLION WORDS IN AGGREGATE,
 MEMDDI DISTRIBUTED OVER   1 PROCESSORS IS           0 WORDS/PROCESSOR.
 TOTAL MEMORY REQUESTED ON EACH PROCESSOR=  1000000000 WORDS.
 TIMLIM=      525600.00 MINUTES, OR     365.0 DAYS.
 PARALL= F  BALTYP=  DLB     KDIAG=    0  COREFL= F
 MXSEQ2=     300 MXSEQ3=     150  mem10=         0  mem22=         0

 Using Gaussians for PCM contribution to MEP, params: 0.10000E+01 0.10000E-07

          ----------------
          PROPERTIES INPUT
          ----------------

     MOMENTS            FIELD           POTENTIAL          DENSITY
 IEMOM =       1   IEFLD =       0   IEPOT =       0   IEDEN =       0
 WHERE =COMASS     WHERE =NUCLEI     WHERE =NUCLEI     WHERE =NUCLEI  
 OUTPUT=BOTH       OUTPUT=BOTH       OUTPUT=NONE       OUTPUT=BOTH    
 IEMINT=       0   IEFINT=       0                     IEDINT=       0
                                                       MORB  =       0
          EXTRAPOLATION IN EFFECT
          SOSCF IN EFFECT
 ORBITAL PRINTING OPTION: NPREO=     1 32767     2     1

     -------------------------------
     INTEGRAL TRANSFORMATION OPTIONS
     -------------------------------
     NWORD  =            0
     CUTOFF = 1.0E-10     MPTRAN =       0
     DIRTRF =       F     AOINTS =DUP     

          ----------------------
          INTEGRAL INPUT OPTIONS
          ----------------------
 NOPK  =       1 NORDER=       0 SCHWRZ=       T

 ..... DONE SETTING UP THE RUN .....
 STEP CPU TIME =     0.02 TOTAL CPU TIME =          0.0 (      0.0 MIN)
 TOTAL WALL CLOCK TIME=          0.0 SECONDS, CPU UTILIZATION IS    99.78%
 STEP CPU TIME =     0.00 TOTAL CPU TIME =          0.0 (      0.0 MIN)
 TOTAL WALL CLOCK TIME=          0.0 SECONDS, CPU UTILIZATION IS    99.78%

                    ----------------------
                    AO INTEGRAL TECHNOLOGY
                    ----------------------
     S,P,L SHELL ROTATED AXIS INTEGRALS, REPROGRAMMED BY
        KAZUYA ISHIMURA (IMS) AND JOSE SIERRA (SYNSTAR).
     S,P,D,L SHELL ROTATED AXIS INTEGRALS PROGRAMMED BY
        KAZUYA ISHIMURA (INSTITUTE FOR MOLECULAR SCIENCE).
     S,P,D,F,G SHELL TO TOTAL QUARTET ANGULAR MOMENTUM SUM 5,
        ERIC PROGRAM BY GRAHAM FLETCHER (ELORET AND NASA ADVANCED
        SUPERCOMPUTING DIVISION, AMES RESEARCH CENTER).
     S,P,D,F,G,L SHELL GENERAL RYS QUADRATURE PROGRAMMED BY
        MICHEL DUPUIS (PACIFIC NORTHWEST NATIONAL LABORATORY).
 Setting modorb=1 flag...
 Setting modorb=1 flag...
 STEP CPU TIME =     0.03 TOTAL CPU TIME =          0.1 (      0.0 MIN)
 TOTAL WALL CLOCK TIME=          0.1 SECONDS, CPU UTILIZATION IS    99.64%
 STEP CPU TIME =     0.00 TOTAL CPU TIME =          0.1 (      0.0 MIN)
 TOTAL WALL CLOCK TIME=          0.1 SECONDS, CPU UTILIZATION IS    99.64%
 Initialising fragments
 STEP CPU TIME =     0.00 TOTAL CPU TIME =          0.1 (      0.0 MIN)
 TOTAL WALL CLOCK TIME=          0.1 SECONDS, CPU UTILIZATION IS    99.64%
 STEP CPU TIME =     0.00 TOTAL CPU TIME =          0.1 (      0.0 MIN)
 TOTAL WALL CLOCK TIME=          0.1 SECONDS, CPU UTILIZATION IS    99.61%
 OPENING FILE SOCCDAT WITH       9 LOGICAL RECORDS OF     676 WORDS
 WITH A MAXIMUM OF           9 PHYSICAL RECORDS OF    2048 WORDS

 -----------------------------------------------------------------------
                  The Fragment Molecular Orbital (FMO) method.
                         Version 5.4
          coded by D. G. Fedorov under the guidance of K. Kitaura,
    with contributions from N. Asada, K. R. Brorsen, M. Chiba, C. Choi,
 D. S. Kaliakin, N. Minezawa, V. Mironov, T. Nagata, H. Nakata, Y. Nishimoto,
               S. R. Pruitt, C. Steinmann, and F. Zahariev.
       All publications using the FMO method in GAMESS should cite:
          D. G. Fedorov, K. Kitaura, J. Chem. Phys. 120, 6832 (2004).
 -----------------------------------------------------------------------

 Used memory (words):        28053
 Number of fragments:      2
 Number of layers:         1
 N-body FMO method:        2
 Number of atoms:         12
 Total charge:             0
 Total spin multiplicity:  1
 Number of basis sets:     1
 Number of LMO types:      0
 Number of boundaries:     0
 MonomerSCF convergence:   0.1000E-06
 Max monomerSCF iter:    200
 MonomerSCF criterion:     internal
 Max AOs per n-mer:       26       52
 Layer electron correlation information
     nbody=  2
    SCFTYP=RHF     
    MPLEVL=  0
    DFTTYP=NONE    
     CITYP=NONE    
     CCTYP=NONE    
     TDDFT=NONE    
 FMO method: FMO2-RHF

 FMO approximations.
    Using point charge approximation for the 2e ESP with the VdW factor   2.00
    Using ES-dimer approximation with the VdW factor   2.00
    The uniform distances will be used in ESPs.
    Van der Waals radii in Angstrom are:
       R(O  )=  1.4000
       R(H  )=  1.2000

 FMO initial guess options.
    Using monomer density to form dimer guess.

 FMO extensions.

 FMO automation options.

 FMO SCF converger options.
    SCF convergers:
     65     65     65     65     65     65     65     65     65     65
    Fragment orbitals will be exchanged.

 FMO parallelisation options.
    Smart parallel load balancing: large jobs first.
    ESPs will be shell parallelised.
    Broadcast all fragments at once.
    Do the fragment initialisation in the reverse order.

 FMO properties and print-out level.
    Interfragment CT method:    4
    Voluminous print-out level.
    Atomic charges will be printed.

 Array dimensions maxbnd,maxknd,maxcbs,maxcao,maxbbd are:
                       5     10      9      5      9

 --------------------------------------------------




 Starting layer 1 nbody=2
 SCFTYP=RHF     MPLEVL=0 DFTTYP=NONE     CITYP=NONE    CCTYP=NONE    TDDFT=NONE    



 Running initial guess for monomer       2


          ********************
          1 ELECTRON INTEGRALS
          ********************
 OVERLAP MATRIX

                      1          2          3          4          5

    1  O  1  S    1.000000
    2  O  1  S    0.233690   1.000000
    3  O  1  X   -0.000000  -0.000000   1.000000
    4  O  1  Y    0.000000  -0.000000   0.000000   1.000000
    5  O  1  Z    0.000000  -0.000000  -0.000000   0.000000   1.000000
    6  O  1  S    0.167280   0.763641   0.000000  -0.000000   0.000000
    7  O  1  X   -0.000000   0.000000   0.501521   0.000000   0.000000
    8  O  1  Y    0.000000   0.000000   0.000000   0.501521   0.000000
    9  O  1  Z    0.000000   0.000000   0.000000   0.000000   0.501521
   10  H  2  S    0.031299   0.230691   0.265442   0.040638   0.041797
   11  H  2  S    0.066998   0.370738   0.144546   0.022129   0.022761
   12  H  3  S    0.033961   0.243874  -0.075354   0.195640  -0.190618
   13  H  3  S    0.068455   0.377755  -0.039321   0.102088  -0.099468
   14  O  4  S    0.000000   0.000000   0.000000  -0.000000  -0.000000
   15  O  4  S    0.000000   0.000001   0.000000  -0.000005  -0.000001
   16  O  4  X   -0.000000  -0.000000   0.000001   0.000000   0.000000
   17  O  4  Y    0.000000   0.000005   0.000000  -0.000015  -0.000004
   18  O  4  Z    0.000000   0.000001   0.000000  -0.000004  -0.000000
   19  O  4  S    0.000145   0.002566   0.000113  -0.003803  -0.000996
   20  O  4  X   -0.000022  -0.000314   0.001443   0.000472   0.000124
   21  O  4  Y    0.000731   0.010523   0.000472  -0.014361  -0.004142
   22  O  4  Z    0.000191   0.002756   0.000124  -0.004142   0.000372
   23  H  5  S    0.000303   0.010458  -0.000816  -0.018028  -0.004889
   24  H  5  S    0.019449   0.126052  -0.003882  -0.085729  -0.023248
   25  H  6  S    0.000000   0.000000  -0.000000  -0.000001  -0.000000
   26  H  6  S    0.000342   0.003680  -0.000825  -0.004355  -0.000295

                      6          7          8          9         10

    6  O  1  S    1.000000
    7  O  1  X    0.000000   1.000000
    8  O  1  Y    0.000000   0.000000   1.000000
    9  O  1  Z   -0.000000   0.000000   0.000000   1.000000
   10  H  2  S    0.412246   0.565088   0.086512   0.088980   1.000000
   11  H  2  S    0.671218   0.473958   0.072560   0.074630   0.658292
   12  H  3  S    0.423381  -0.154915   0.402199  -0.391876   0.045998
   13  H  3  S    0.680496  -0.128236   0.332933  -0.324388   0.214284
   14  O  4  S    0.000145   0.000022  -0.000731  -0.000191   0.000000
   15  O  4  S    0.002566   0.000314  -0.010523  -0.002756   0.000002
   16  O  4  X   -0.000113   0.001443   0.000472   0.000124   0.000001
   17  O  4  Y    0.003803   0.000472  -0.014361  -0.004142   0.000005
   18  O  4  Z    0.000996   0.000124  -0.004142   0.000372   0.000001
   19  O  4  S    0.026175   0.002038  -0.068320  -0.017892   0.001266
   20  O  4  X   -0.002038   0.026017   0.005320   0.001393   0.001552
   21  O  4  Y    0.068320   0.005320  -0.152146  -0.046699   0.004935
   22  O  4  Z    0.017892   0.001393  -0.046699   0.013946   0.001491
   23  H  5  S    0.089812  -0.009832  -0.217114  -0.058878   0.002414
   24  H  5  S    0.304814  -0.017371  -0.383594  -0.104024   0.065759
   25  H  6  S    0.000663  -0.000549  -0.002897  -0.000196   0.000000
   26  H  6  S    0.023087  -0.010117  -0.053383  -0.003611   0.001265

                     11         12         13         14         15

   11  H  2  S    1.000000
   12  H  3  S    0.214284   1.000000
   13  H  3  S    0.501891   0.658292   1.000000
   14  O  4  S    0.000584   0.000000   0.000211   1.000000
   15  O  4  S    0.005882   0.000000   0.002416   0.233690   1.000000
   16  O  4  X    0.001962  -0.000000  -0.000303  -0.000000  -0.000000
   17  O  4  Y    0.006239   0.000000   0.003003  -0.000000  -0.000000
   18  O  4  Z    0.001885   0.000000   0.000042  -0.000000   0.000000
   19  O  4  S    0.032504   0.000371   0.016987   0.167280   0.763641
   20  O  4  X    0.021059  -0.000173  -0.004190  -0.000000  -0.000000
   21  O  4  Y    0.066965   0.001711   0.041471   0.000000  -0.000000
   22  O  4  Z    0.020231   0.000024   0.000586   0.000000   0.000000
   23  H  5  S    0.065759   0.000954   0.045121   0.031220   0.230298
   24  H  5  S    0.242358   0.045121   0.192069   0.066953   0.370524
   25  H  6  S    0.001265   0.000000   0.000650   0.033964   0.243890
   26  H  6  S    0.020955   0.000650   0.013860   0.068456   0.377764

                     16         17         18         19         20

   16  O  4  X    1.000000
   17  O  4  Y    0.000000   1.000000
   18  O  4  Z    0.000000   0.000000   1.000000
   19  O  4  S    0.000000   0.000000   0.000000   1.000000
   20  O  4  X    0.501521   0.000000   0.000000   0.000000   1.000000
   21  O  4  Y    0.000000   0.501521   0.000000   0.000000   0.000000
   22  O  4  Z    0.000000   0.000000   0.501521   0.000000   0.000000
   23  H  5  S   -0.043233   0.260255   0.063762   0.411908  -0.092136
   24  H  5  S   -0.023573   0.141906   0.034767   0.670934  -0.077309
   25  H  6  S   -0.198532  -0.144053   0.141880   0.423395  -0.408129
   26  H  6  S   -0.103592  -0.075166   0.074032   0.680507  -0.337836

                     21         22         23         24         25

   21  O  4  Y    1.000000
   22  O  4  Z    0.000000   1.000000
   23  H  5  S    0.554638   0.135885   1.000000
   24  H  5  S    0.465381   0.114017   0.658292   1.000000
   25  H  6  S   -0.296135   0.291667   0.046101   0.214473   1.000000
   26  H  6  S   -0.245131   0.241433   0.214473   0.502164   0.658292

                     26

   26  H  6  S    1.000000
 BARE NUCLEUS HAMILTONIAN INTEGRALS (H=T+V)

                      1          2          3          4          5

    1  O  1  S  -35.029632
    2  O  1  S   -7.831013 -11.908248
    3  O  1  X   -0.014679  -0.099942 -10.484390
    4  O  1  Y    0.010753   0.073733   0.003683 -10.486946
    5  O  1  Z    0.018756   0.127714  -0.027046   0.026511 -10.445170
    6  O  1  S   -5.703775  -8.905684  -0.094985   0.075083   0.121995
    7  O  1  X   -0.002023  -0.064479  -4.782736   0.003206  -0.024906
    8  O  1  Y    0.001482   0.051648   0.003206  -4.788970   0.023016
    9  O  1  Z    0.002585   0.082892  -0.024906   0.023016  -4.746211
   10  H  2  S   -1.072513  -2.623188  -2.606965  -0.376842  -0.388415
   11  H  2  S   -2.287967  -4.262992  -1.438289  -0.171422  -0.162448
   12  H  3  S   -1.162947  -2.759016   0.716698  -1.882242   1.870454
   13  H  3  S   -2.337388  -4.333075   0.334698  -0.944770   1.015546
   14  O  4  S    0.000000  -0.000000  -0.000000   0.000000   0.000000
   15  O  4  S   -0.000000  -0.000030  -0.000003   0.000093   0.000024
   16  O  4  X    0.000000   0.000003  -0.000011  -0.000009  -0.000002
   17  O  4  Y   -0.000000  -0.000092  -0.000008   0.000274   0.000075
   18  O  4  Z   -0.000000  -0.000024  -0.000002   0.000075   0.000008
   19  O  4  S   -0.005007  -0.029833  -0.001330   0.040074   0.010598
   20  O  4  X    0.000751   0.003508  -0.014864  -0.004780  -0.001286
   21  O  4  Y   -0.025215  -0.120819  -0.005484   0.147839   0.043108
   22  O  4  Z   -0.006602  -0.031567  -0.001455   0.042571  -0.003699
   23  H  5  S   -0.010666  -0.122050   0.008071   0.190923   0.052001
   24  H  5  S   -0.665181  -1.444582   0.023457   0.848517   0.241630
   25  H  6  S   -0.000000  -0.000008   0.000004   0.000024   0.000002
   26  H  6  S   -0.011736  -0.042008   0.007886   0.044331   0.003461

                      6          7          8          9         10

    6  O  1  S   -9.256512
    7  O  1  X   -0.138993  -6.669625
    8  O  1  Y    0.215650   0.006033  -6.801977
    9  O  1  Z    0.200324  -0.058517   0.021460  -6.586817
   10  H  2  S   -3.526977  -4.016413  -0.565493  -0.599884  -6.657948
   11  H  2  S   -5.577369  -3.040063  -0.260002  -0.335284  -4.654797
   12  H  3  S   -3.600766   1.065888  -2.779194   2.769667  -0.488802
   13  H  3  S   -5.611167   0.712075  -1.895656   2.130240  -1.768744
   14  O  4  S   -0.004997  -0.000748   0.025159   0.006587  -0.000000
   15  O  4  S   -0.030761  -0.003444   0.124155   0.032460  -0.000030
   16  O  4  X    0.001596  -0.015014  -0.006456  -0.001664  -0.000023
   17  O  4  Y   -0.041994  -0.004666   0.154775   0.044475  -0.000076
   18  O  4  Z   -0.011075  -0.001208   0.044880  -0.003407  -0.000023
   19  O  4  S   -0.216363  -0.015155   0.549134   0.143947  -0.012111
   20  O  4  X    0.017440  -0.180758  -0.044431  -0.011647  -0.013070
   21  O  4  Y   -0.543431  -0.038020   1.141300   0.347445  -0.046261
   22  O  4  Z   -0.142173  -0.009947   0.346714  -0.090385  -0.013780
   23  H  5  S   -0.737834   0.069485   1.702511   0.461139  -0.026373
   24  H  5  S   -2.498989   0.080824   2.736158   0.758804  -0.563962
   25  H  6  S   -0.006892   0.004887   0.029343   0.002607  -0.000002
   26  H  6  S   -0.181526   0.064803   0.398296   0.037196  -0.011912

                     11         12         13         14         15

   11  H  2  S   -6.219848
   12  H  3  S   -1.764849  -6.602076
   13  H  3  S   -3.597758  -4.612050  -6.119535
   14  O  4  S   -0.019986  -0.000000  -0.007245 -34.898066
   15  O  4  S   -0.067935  -0.000003  -0.028227  -7.800267 -11.776684
   16  O  4  X   -0.018543   0.000001   0.003404   0.018844   0.128198
   17  O  4  Y   -0.065559  -0.000008  -0.032001  -0.033654  -0.229527
   18  O  4  Z   -0.019919  -0.000000  -0.001038  -0.021966  -0.149567
   19  O  4  S   -0.254526  -0.004046  -0.135379  -5.681767  -8.805223
   20  O  4  X   -0.131763   0.001675   0.029778   0.002597   0.082251
   21  O  4  Y   -0.493589  -0.018212  -0.312898  -0.004637  -0.151324
   22  O  4  Z   -0.146910  -0.000788  -0.014348  -0.003027  -0.096889
   23  H  5  S   -0.534577  -0.011442  -0.367139  -1.067572  -2.681773
   24  H  5  S   -1.784918  -0.407151  -1.439344  -2.278654  -4.256501
   25  H  6  S   -0.012730  -0.000000  -0.006403  -1.158942  -2.740690
   26  H  6  S   -0.157742  -0.006650  -0.103767  -2.328629  -4.291194

                     16         17         18         19         20

   16  O  4  X  -10.318203
   17  O  4  Y   -0.017589 -10.401474
   18  O  4  Z    0.032598  -0.004406 -10.302139
   19  O  4  S    0.121284  -0.222125  -0.142639  -9.125180
   20  O  4  X   -4.684578  -0.015908   0.029880   0.173824  -6.469066
   21  O  4  Y   -0.015908  -4.765325  -0.005169  -0.413473  -0.034805
   22  O  4  Z    0.029880  -0.005169  -4.670111  -0.226933   0.069418
   23  H  5  S    0.450726  -2.668091  -0.666489  -3.790080   0.731531
   24  H  5  S    0.282070  -1.488619  -0.404685  -5.717999   0.597921
   25  H  6  S    1.930806   1.346214  -1.390082  -3.581253   2.861082
   26  H  6  S    1.043067   0.607725  -0.772613  -5.555440   2.166541

                     21         22         23         24         25

   21  O  4  Y   -6.756264
   22  O  4  Z   -0.037154  -6.441249
   23  H  5  S   -4.446522  -1.105571  -7.730994
   24  H  5  S   -3.458377  -0.919055  -5.361316  -7.277484
   25  H  6  S    1.993155  -2.060947  -0.504142  -1.780500  -6.576892
   26  H  6  S    1.210321  -1.619335  -1.924446  -3.754874  -4.595464

                     26

   26  H  6  S   -6.094339
 KINETIC ENERGY INTEGRALS

                      1          2          3          4          5

    1  O  1  S   29.540147
    2  O  1  S   -2.185404   1.711211
    3  O  1  X    0.000000   0.000000   4.251877
    4  O  1  Y   -0.000000  -0.000000   0.000000   4.251877
    5  O  1  Z   -0.000000   0.000000  -0.000000  -0.000000   4.251877
    6  O  1  S    0.131283   0.480048   0.000000  -0.000000  -0.000000
    7  O  1  X   -0.000000   0.000000   0.547243   0.000000   0.000000
    8  O  1  Y   -0.000000  -0.000000   0.000000   0.547243  -0.000000
    9  O  1  Z    0.000000  -0.000000   0.000000  -0.000000   0.547243
   10  H  2  S   -0.023350   0.005727   0.189507   0.029012   0.029840
   11  H  2  S    0.020191   0.104637   0.081912   0.012540   0.012898
   12  H  3  S   -0.022512   0.016637  -0.057555   0.149428  -0.145593
   13  H  3  S    0.021096   0.108568  -0.022495   0.058404  -0.056905
   14  O  4  S    0.000000  -0.000000  -0.000000   0.000000   0.000000
   15  O  4  S   -0.000000  -0.000018  -0.000002   0.000054   0.000014
   16  O  4  X    0.000000   0.000002  -0.000007  -0.000005  -0.000001
   17  O  4  Y   -0.000000  -0.000054  -0.000005   0.000153   0.000042
   18  O  4  Z   -0.000000  -0.000014  -0.000001   0.000042   0.000004
   19  O  4  S   -0.000419  -0.004590  -0.000162   0.005424   0.001420
   20  O  4  X    0.000052   0.000427  -0.002064  -0.000473  -0.000124
   21  O  4  Y   -0.001736  -0.014310  -0.000473   0.013770   0.004150
   22  O  4  Z   -0.000455  -0.003747  -0.000124   0.004150  -0.000991
   23  H  5  S   -0.001854  -0.023873   0.001361   0.030052   0.008150
   24  H  5  S   -0.001750  -0.001937  -0.000996  -0.021993  -0.005964
   25  H  6  S   -0.000000  -0.000005   0.000002   0.000013   0.000001
   26  H  6  S   -0.000467  -0.003665   0.000617   0.003257   0.000220

                      6          7          8          9         10

    6  O  1  S    0.405009
    7  O  1  X    0.000000   0.675015
    8  O  1  Y    0.000000   0.000000   0.675015
    9  O  1  Z   -0.000000   0.000000   0.000000   0.675015
   10  H  2  S    0.131896   0.404099   0.061865   0.063630   1.395678
   11  H  2  S    0.155954   0.205831   0.031512   0.032411   0.259735
   12  H  3  S    0.139920  -0.112459   0.291973  -0.284479  -0.043571
   13  H  3  S    0.159997  -0.056046   0.145510  -0.141775   0.021140
   14  O  4  S   -0.000419  -0.000052   0.001736   0.000455  -0.000000
   15  O  4  S   -0.004590  -0.000427   0.014310   0.003747  -0.000016
   16  O  4  X    0.000162  -0.002064  -0.000473  -0.000124  -0.000012
   17  O  4  Y   -0.005424  -0.000473   0.013770   0.004150  -0.000039
   18  O  4  Z   -0.001420  -0.000124   0.004150  -0.000991  -0.000012
   19  O  4  S   -0.015145  -0.000629   0.021084   0.005521  -0.002372
   20  O  4  X    0.000629  -0.008072  -0.000205  -0.000054  -0.002329
   21  O  4  Y   -0.021084  -0.000205  -0.001195   0.001802  -0.007406
   22  O  4  Z   -0.005521  -0.000054   0.001802  -0.007606  -0.002237
   23  H  5  S   -0.024392  -0.001090  -0.024079  -0.006530  -0.006524
   24  H  5  S    0.022233  -0.004775  -0.105441  -0.028594  -0.013782
   25  H  6  S   -0.001402   0.000956   0.005047   0.000341  -0.000001
   26  H  6  S   -0.010346   0.002491   0.013144   0.000889  -0.001551

                     11         12         13         14         15

   11  H  2  S    0.241917
   12  H  3  S    0.021140   1.395678
   13  H  3  S    0.065615   0.259735   0.241917
   14  O  4  S   -0.000700  -0.000000  -0.000321  29.540147
   15  O  4  S   -0.005091  -0.000002  -0.002689  -2.185404   1.711211
   16  O  4  X   -0.001208   0.000000   0.000263   0.000000  -0.000000
   17  O  4  Y   -0.003840  -0.000005  -0.002603   0.000000   0.000000
   18  O  4  Z   -0.001160  -0.000000  -0.000037   0.000000   0.000000
   19  O  4  S   -0.012321  -0.000866  -0.008665   0.131283   0.480048
   20  O  4  X   -0.003730   0.000339   0.001291  -0.000000   0.000000
   21  O  4  Y   -0.011861  -0.003352  -0.012780  -0.000000   0.000000
   22  O  4  Z   -0.003583  -0.000047  -0.000181  -0.000000  -0.000000
   23  H  5  S   -0.013782  -0.003123  -0.013866  -0.023372   0.005412
   24  H  5  S    0.003231  -0.013866  -0.004643   0.020164   0.104518
   25  H  6  S   -0.001551  -0.000000  -0.000908  -0.022511   0.016651
   26  H  6  S   -0.007994  -0.000908  -0.006211   0.021097   0.108573

                     16         17         18         19         20

   16  O  4  X    4.251877
   17  O  4  Y    0.000000   4.251877
   18  O  4  Z    0.000000  -0.000000   4.251877
   19  O  4  S    0.000000  -0.000000  -0.000000   0.405009
   20  O  4  X    0.547243  -0.000000  -0.000000   0.000000   0.675015
   21  O  4  Y   -0.000000   0.547243  -0.000000   0.000000   0.000000
   22  O  4  Z   -0.000000  -0.000000   0.547243   0.000000   0.000000
   23  H  5  S   -0.030800   0.185408   0.045424   0.131655  -0.065857
   24  H  5  S   -0.013355   0.080392   0.019696   0.155831  -0.033567
   25  H  6  S   -0.151649  -0.110036   0.108375   0.139930  -0.296283
   26  H  6  S   -0.059265  -0.043002   0.042353   0.160002  -0.147654

                     21         22         23         24         25

   21  O  4  Y    0.675015
   22  O  4  Z    0.000000   0.675015
   23  H  5  S    0.396442   0.097127   1.395678
   24  H  5  S    0.202067   0.049506   0.259735   0.241917
   25  H  6  S   -0.214980   0.211737  -0.043608   0.021208   1.395678
   26  H  6  S   -0.107136   0.105520   0.021208   0.065695   0.259735

                     26

   26  H  6  S    0.241917
 ...... END OF ONE-ELECTRON INTEGRALS ......
 STEP CPU TIME =     0.01 TOTAL CPU TIME =          0.1 (      0.0 MIN)
 TOTAL WALL CLOCK TIME=          0.1 SECONDS, CPU UTILIZATION IS    99.65%

          -------------
          GUESS OPTIONS
          -------------
          GUESS =HUCKEL            NORB  =       0          NORDER=       0
          MIX   =       F          PRTMO =       F          PUNMO =       F
          TOLZ  = 1.0E-08          TOLE  = 1.0E-05
          SYMDEN=       F          PURIFY=       F

 INITIAL GUESS ORBITALS GENERATED BY HUCKEL   ROUTINE.
 HUCKEL GUESS REQUIRES     10014 WORDS.

 SYMMETRIES FOR INITIAL GUESS ORBITALS FOLLOW.   BOTH SET(S).
    10 ORBITALS ARE OCCUPIED (    2 CORE ORBITALS).
     3=A        4=A        5=A        6=A        7=A        8=A        9=A   
    10=A       11=A       12=A       13=A       14=A       15=A       16=A   
    17=A       18=A       19=A       20=A   
 ...... END OF INITIAL ORBITAL SELECTION ......
 STEP CPU TIME =     0.00 TOTAL CPU TIME =          0.1 (      0.0 MIN)
 TOTAL WALL CLOCK TIME=          0.1 SECONDS, CPU UTILIZATION IS    99.67%

 Running initial guess for monomer       1


          ********************
          1 ELECTRON INTEGRALS
          ********************
 OVERLAP MATRIX

                      1          2          3          4          5

    1  O  1  S    1.000000
    2  O  1  S    0.233690   1.000000
    3  O  1  X    0.000000  -0.000000   1.000000
    4  O  1  Y   -0.000000  -0.000000  -0.000000   1.000000
    5  O  1  Z   -0.000000  -0.000000  -0.000000   0.000000   1.000000
    6  O  1  S    0.167280   0.763641   0.000000   0.000000   0.000000
    7  O  1  X    0.000000   0.000000   0.501521   0.000000   0.000000
    8  O  1  Y   -0.000000   0.000000   0.000000   0.501521   0.000000
    9  O  1  Z   -0.000000  -0.000000   0.000000   0.000000   0.501521
   10  H  2  S    0.033950   0.243822   0.075484  -0.195740   0.190397
   11  H  2  S    0.068449   0.377728   0.039395  -0.102158   0.099369
   12  H  3  S    0.031306   0.230726  -0.265488  -0.040644  -0.041694
   13  H  3  S    0.067002   0.370757  -0.144555  -0.022130  -0.022702
   14  O  4  S    0.000000   0.000000  -0.000000   0.000000   0.000000
   15  O  4  S    0.000000   0.000001  -0.000000   0.000005   0.000001
   16  O  4  X    0.000000   0.000000   0.000001   0.000000   0.000000
   17  O  4  Y   -0.000000  -0.000005   0.000000  -0.000015  -0.000004
   18  O  4  Z   -0.000000  -0.000001   0.000000  -0.000004  -0.000000
   19  O  4  S    0.000145   0.002566  -0.000114   0.003802   0.000997
   20  O  4  X    0.000022   0.000315   0.001443   0.000473   0.000124
   21  O  4  Y   -0.000730  -0.010521   0.000473  -0.014356  -0.004149
   22  O  4  Z   -0.000192  -0.002760   0.000124  -0.004149   0.000368
   23  H  5  S    0.000304   0.010461   0.000816   0.018030   0.004900
   24  H  5  S    0.019452   0.126064   0.003878   0.085723   0.023296
   25  H  6  S    0.000000   0.000000   0.000000   0.000001   0.000000
   26  H  6  S    0.000342   0.003680   0.000826   0.004355   0.000297

                      6          7          8          9         10

    6  O  1  S    1.000000
    7  O  1  X   -0.000000   1.000000
    8  O  1  Y    0.000000   0.000000   1.000000
    9  O  1  Z    0.000000   0.000000   0.000000   1.000000
   10  H  2  S    0.423338   0.155201  -0.402460   0.391474   1.000000
   11  H  2  S    0.680461   0.128479  -0.333166   0.324071   0.658292
   12  H  3  S    0.412275  -0.565134  -0.086518  -0.088751   0.045989
   13  H  3  S    0.671242  -0.473980  -0.072563  -0.074436   0.214268
   14  O  4  S    0.000145  -0.000022   0.000730   0.000192   0.000000
   15  O  4  S    0.002566  -0.000315   0.010521   0.002760   0.000000
   16  O  4  X    0.000114   0.001443   0.000473   0.000124   0.000000
   17  O  4  Y   -0.003802   0.000473  -0.014356  -0.004149  -0.000000
   18  O  4  Z   -0.000997   0.000124  -0.004149   0.000368  -0.000000
   19  O  4  S    0.026174  -0.002043   0.068309   0.017921   0.000371
   20  O  4  X    0.002043   0.026014   0.005332   0.001399   0.000173
   21  O  4  Y   -0.068309   0.005332  -0.152098  -0.046771  -0.001709
   22  O  4  Z   -0.017921   0.001399  -0.046771   0.013903  -0.000025
   23  H  5  S    0.089825   0.009821   0.217107   0.059000   0.000954
   24  H  5  S    0.304837   0.017350   0.383556   0.104234   0.045108
   25  H  6  S    0.000663   0.000549   0.002897   0.000198   0.000000
   26  H  6  S    0.023089   0.010120   0.053386   0.003644   0.000651

                     11         12         13         14         15

   11  H  2  S    1.000000
   12  H  3  S    0.214268   1.000000
   13  H  3  S    0.501868   0.658292   1.000000
   14  O  4  S    0.000211   0.000000   0.000584   1.000000
   15  O  4  S    0.002414   0.000002   0.005884   0.233690   1.000000
   16  O  4  X    0.000304  -0.000001  -0.001962   0.000000   0.000000
   17  O  4  Y   -0.003000  -0.000005  -0.006241   0.000000   0.000000
   18  O  4  Z   -0.000044  -0.000001  -0.001887   0.000000   0.000000
   19  O  4  S    0.016975   0.001266   0.032512   0.167280   0.763641
   20  O  4  X    0.004196  -0.001552  -0.021059  -0.000000   0.000000
   21  O  4  Y   -0.041444  -0.004937  -0.066974   0.000000   0.000000
   22  O  4  Z   -0.000608  -0.001493  -0.020255  -0.000000   0.000000
   23  H  5  S    0.045108   0.002416   0.065780   0.031209   0.230240
   24  H  5  S    0.192035   0.065780   0.242406   0.066947   0.370493
   25  H  6  S    0.000651   0.000000   0.001265   0.033976   0.243951
   26  H  6  S    0.013860   0.001265   0.020954   0.068463   0.377796

                     16         17         18         19         20

   16  O  4  X    1.000000
   17  O  4  Y    0.000000   1.000000
   18  O  4  Z    0.000000   0.000000   1.000000
   19  O  4  S   -0.000000   0.000000   0.000000   1.000000
   20  O  4  X    0.501521   0.000000   0.000000   0.000000   1.000000
   21  O  4  Y    0.000000   0.501521   0.000000   0.000000   0.000000
   22  O  4  Z    0.000000   0.000000   0.501521   0.000000   0.000000
   23  H  5  S    0.043249  -0.260183  -0.063827   0.411859   0.092184
   24  H  5  S    0.023586  -0.141894  -0.034809   0.670893   0.077353
   25  H  6  S    0.198676   0.144123  -0.141714   0.423446   0.408360
   26  H  6  S    0.103647   0.075188  -0.073931   0.680549   0.338007

                     21         22         23         24         25

   21  O  4  Y    1.000000
   22  O  4  Z    0.000000   1.000000
   23  H  5  S   -0.554571  -0.136045   1.000000
   24  H  5  S   -0.465353  -0.114158   0.658292   1.000000
   25  H  6  S    0.296231  -0.291280   0.046102   0.214474   1.000000
   26  H  6  S    0.245196  -0.241098   0.214474   0.502165   0.658292

                     26

   26  H  6  S    1.000000
 BARE NUCLEUS HAMILTONIAN INTEGRALS (H=T+V)

                      1          2          3          4          5

    1  O  1  S  -35.029619
    2  O  1  S   -7.831009 -11.908235
    3  O  1  X    0.014674   0.099910 -10.484421
    4  O  1  Y   -0.010742  -0.073654   0.003718 -10.486971
    5  O  1  Z   -0.018761  -0.127748  -0.027027   0.026475 -10.445075
    6  O  1  S   -5.703773  -8.905674   0.094953  -0.075005  -0.122031
    7  O  1  X    0.002022   0.064457  -4.782768   0.003240  -0.024889
    8  O  1  Y   -0.001480  -0.051596   0.003240  -4.789000   0.022982
    9  O  1  Z   -0.002585  -0.082917  -0.024889   0.022982  -4.746132
   10  H  2  S   -1.162586  -2.758387  -0.717950   1.883214  -1.868286
   11  H  2  S   -2.337195  -4.332743  -0.335426   0.945472  -1.014598
   12  H  3  S   -1.072746  -2.623597   2.607430   0.376917   0.387392
   13  H  3  S   -2.288098  -4.263209   1.438366   0.171466   0.161855
   14  O  4  S    0.000000  -0.000000   0.000000  -0.000000  -0.000000
   15  O  4  S   -0.000000  -0.000030   0.000003  -0.000093  -0.000024
   16  O  4  X   -0.000000  -0.000003  -0.000011  -0.000009  -0.000002
   17  O  4  Y    0.000000   0.000092  -0.000008   0.000274   0.000075
   18  O  4  Z    0.000000   0.000024  -0.000002   0.000075   0.000008
   19  O  4  S   -0.005007  -0.029831   0.001333  -0.040066  -0.010615
   20  O  4  X   -0.000752  -0.003517  -0.014862  -0.004791  -0.001292
   21  O  4  Y    0.025210   0.120796  -0.005495   0.147790   0.043174
   22  O  4  Z    0.006612   0.031619  -0.001460   0.042636  -0.003660
   23  H  5  S   -0.010671  -0.122084  -0.008062  -0.190944  -0.052116
   24  H  5  S   -0.665258  -1.444728  -0.023413  -0.848448  -0.242100
   25  H  6  S   -0.000000  -0.000008  -0.000004  -0.000024  -0.000002
   26  H  6  S   -0.011738  -0.042015  -0.007888  -0.044335  -0.003488

                      6          7          8          9         10

    6  O  1  S   -9.256504
    7  O  1  X    0.138940  -6.669692
    8  O  1  Y   -0.215518   0.006126  -6.802033
    9  O  1  Z   -0.200442  -0.058475   0.021339  -6.586682
   10  H  2  S   -3.600239  -1.067863   2.780951  -2.766770  -6.601609
   11  H  2  S   -5.610793  -0.713610   1.897187  -2.128334  -4.611767
   12  H  3  S   -3.527318   4.016812   0.565558   0.598250  -0.488714
   13  H  3  S   -5.577605   3.040190   0.260084   0.333961  -1.764643
   14  O  4  S   -0.004996   0.000750  -0.025154  -0.006598  -0.000000
   15  O  4  S   -0.030758   0.003453  -0.124130  -0.032513  -0.000003
   16  O  4  X   -0.001599  -0.015012  -0.006468  -0.001671  -0.000001
   17  O  4  Y    0.041985  -0.004678   0.154722   0.044543   0.000008
   18  O  4  Z    0.011093  -0.001213   0.044947  -0.003367   0.000000
   19  O  4  S   -0.216352   0.015194  -0.549042  -0.144189  -0.004041
   20  O  4  X   -0.017481  -0.180743  -0.044525  -0.011694  -0.001676
   21  O  4  Y    0.543341  -0.038112   1.140942   0.347989   0.018191
   22  O  4  Z    0.142409  -0.009989   0.347246  -0.090066   0.000797
   23  H  5  S   -0.737934  -0.069395  -1.702438  -0.462087  -0.011435
   24  H  5  S   -2.499179  -0.080675  -2.735867  -0.760282  -0.407033
   25  H  6  S   -0.006894  -0.004889  -0.029347  -0.002625  -0.000000
   26  H  6  S   -0.181547  -0.064818  -0.398312  -0.037434  -0.006650

                     11         12         13         14         15

   11  H  2  S   -6.119247
   12  H  3  S   -1.768668  -6.658222
   13  H  3  S   -3.597582  -4.654963  -6.220010
   14  O  4  S   -0.007237  -0.000000  -0.019993 -34.898051
   15  O  4  S   -0.028200  -0.000030  -0.067956  -7.800263 -11.776668
   16  O  4  X   -0.003408   0.000023   0.018545  -0.018858  -0.128294
   17  O  4  Y    0.031971   0.000076   0.065573   0.033640   0.229433
   18  O  4  Z    0.001054   0.000023   0.019944   0.021969   0.149588
   19  O  4  S   -0.135285  -0.012116  -0.254585  -5.681764  -8.805211
   20  O  4  X   -0.029819   0.013072   0.131758  -0.002599  -0.082312
   21  O  4  Y    0.312701   0.046276   0.493646   0.004636   0.151266
   22  O  4  Z    0.014504   0.013799   0.147091   0.003027   0.096904
   23  H  5  S   -0.367032  -0.026393  -0.534741  -1.067183  -2.681082
   24  H  5  S   -1.439104  -0.564145  -1.785265  -2.278434  -4.256133
   25  H  6  S   -0.006403  -0.000002  -0.012731  -1.159368  -2.741408
   26  H  6  S   -0.103765  -0.011912  -0.157747  -2.328854  -4.291561

                     16         17         18         19         20

   16  O  4  X  -10.318244
   17  O  4  Y   -0.017617 -10.401437
   18  O  4  Z    0.032586  -0.004452 -10.302087
   19  O  4  S   -0.121374   0.222039   0.142660  -9.125163
   20  O  4  X   -4.684620  -0.015931   0.029869  -0.173949  -6.469151
   21  O  4  Y   -0.015931  -4.765300  -0.005215   0.413365  -0.034835
   22  O  4  Z    0.029869  -0.005215  -4.670070   0.227001   0.069383
   23  H  5  S   -0.450890   2.667328   0.667146  -3.789519  -0.731908
   24  H  5  S   -0.282231   1.488445   0.405101  -5.717616  -0.598286
   25  H  6  S   -1.932222  -1.346896   1.388506  -3.581824  -2.862778
   26  H  6  S   -1.043640  -0.607964   0.771672  -5.555817  -2.167669

                     21         22         23         24         25

   21  O  4  Y   -6.756200
   22  O  4  Z   -0.037316  -6.441172
   23  H  5  S    4.445904   1.106844  -7.730708
   24  H  5  S    3.458090   0.920090  -5.361152  -7.277383
   25  H  6  S   -1.993879   2.058324  -0.504148  -1.780586  -6.577309
   26  H  6  S   -1.210759   1.617359  -1.924395  -3.754901  -4.595709

                     26

   26  H  6  S   -6.094546
 KINETIC ENERGY INTEGRALS

                      1          2          3          4          5

    1  O  1  S   29.540147
    2  O  1  S   -2.185404   1.711211
    3  O  1  X    0.000000  -0.000000   4.251877
    4  O  1  Y    0.000000   0.000000   0.000000   4.251877
    5  O  1  Z    0.000000   0.000000   0.000000  -0.000000   4.251877
    6  O  1  S    0.131283   0.480048   0.000000  -0.000000   0.000000
    7  O  1  X   -0.000000   0.000000   0.547243   0.000000   0.000000
    8  O  1  Y    0.000000  -0.000000   0.000000   0.547243   0.000000
    9  O  1  Z   -0.000000  -0.000000   0.000000   0.000000   0.547243
   10  H  2  S   -0.022516   0.016593   0.057639  -0.149468   0.145388
   11  H  2  S    0.021093   0.108553   0.022537  -0.058441   0.056846
   12  H  3  S   -0.023348   0.005755  -0.189575  -0.029023  -0.029772
   13  H  3  S    0.020194   0.104648  -0.081919  -0.012541  -0.012865
   14  O  4  S    0.000000  -0.000000   0.000000  -0.000000  -0.000000
   15  O  4  S   -0.000000  -0.000018   0.000002  -0.000054  -0.000014
   16  O  4  X   -0.000000  -0.000002  -0.000007  -0.000005  -0.000001
   17  O  4  Y    0.000000   0.000054  -0.000005   0.000153   0.000042
   18  O  4  Z    0.000000   0.000014  -0.000001   0.000042   0.000004
   19  O  4  S   -0.000419  -0.004590   0.000162  -0.005423  -0.001423
   20  O  4  X   -0.000052  -0.000428  -0.002064  -0.000474  -0.000124
   21  O  4  Y    0.001736   0.014308  -0.000474   0.013766   0.004157
   22  O  4  Z    0.000455   0.003754  -0.000124   0.004157  -0.000987
   23  H  5  S   -0.001855  -0.023878  -0.001359  -0.030052  -0.008167
   24  H  5  S   -0.001749  -0.001934   0.000995   0.021994   0.005977
   25  H  6  S   -0.000000  -0.000005  -0.000002  -0.000013  -0.000001
   26  H  6  S   -0.000467  -0.003665  -0.000617  -0.003257  -0.000222

                      6          7          8          9         10

    6  O  1  S    0.405009
    7  O  1  X   -0.000000   0.675015
    8  O  1  Y    0.000000   0.000000   0.675015
    9  O  1  Z   -0.000000   0.000000   0.000000   0.675015
   10  H  2  S    0.139889   0.112660  -0.292146   0.284171   1.395678
   11  H  2  S    0.159981   0.056151  -0.145608   0.141633   0.259735
   12  H  3  S    0.131917  -0.404149  -0.061872  -0.063469  -0.043568
   13  H  3  S    0.155965  -0.205845  -0.031513  -0.032327   0.021134
   14  O  4  S   -0.000419   0.000052  -0.001736  -0.000455  -0.000000
   15  O  4  S   -0.004590   0.000428  -0.014308  -0.003754  -0.000002
   16  O  4  X   -0.000162  -0.002064  -0.000474  -0.000124  -0.000000
   17  O  4  Y    0.005423  -0.000474   0.013766   0.004157   0.000005
   18  O  4  Z    0.001423  -0.000124   0.004157  -0.000987   0.000000
   19  O  4  S   -0.015145   0.000631  -0.021081  -0.005531  -0.000865
   20  O  4  X   -0.000631  -0.008071  -0.000206  -0.000054  -0.000339
   21  O  4  Y    0.021081  -0.000206  -0.001195   0.001806   0.003349
   22  O  4  Z    0.005531  -0.000054   0.001806  -0.007604   0.000049
   23  H  5  S   -0.024391   0.001090   0.024090   0.006547  -0.003121
   24  H  5  S    0.022239   0.004769   0.105436   0.028653  -0.013866
   25  H  6  S   -0.001402  -0.000957  -0.005048  -0.000345  -0.000000
   26  H  6  S   -0.010347  -0.002491  -0.013143  -0.000897  -0.000909

                     11         12         13         14         15

   11  H  2  S    0.241917
   12  H  3  S    0.021134   1.395678
   13  H  3  S    0.065609   0.259735   0.241917
   14  O  4  S   -0.000321  -0.000000  -0.000700  29.540147
   15  O  4  S   -0.002687  -0.000016  -0.005092  -2.185404   1.711211
   16  O  4  X   -0.000263   0.000012   0.001208  -0.000000   0.000000
   17  O  4  Y    0.002601   0.000039   0.003841  -0.000000  -0.000000
   18  O  4  Z    0.000038   0.000012   0.001162  -0.000000   0.000000
   19  O  4  S   -0.008661  -0.002373  -0.012323   0.131283   0.480048
   20  O  4  X   -0.001294   0.002329   0.003729   0.000000  -0.000000
   21  O  4  Y    0.012778   0.007407   0.011859   0.000000  -0.000000
   22  O  4  Z    0.000188   0.002240   0.003587   0.000000  -0.000000
   23  H  5  S   -0.013866  -0.006528  -0.013781  -0.023376   0.005366
   24  H  5  S   -0.004648  -0.013781   0.003239   0.020160   0.104501
   25  H  6  S   -0.000909  -0.000001  -0.001551  -0.022507   0.016703
   26  H  6  S   -0.006211  -0.001551  -0.007994   0.021102   0.108591

                     16         17         18         19         20

   16  O  4  X    4.251877
   17  O  4  Y    0.000000   4.251877
   18  O  4  Z    0.000000  -0.000000   4.251877
   19  O  4  S   -0.000000   0.000000   0.000000   0.405009
   20  O  4  X    0.547243   0.000000  -0.000000   0.000000   0.675015
   21  O  4  Y    0.000000   0.547243  -0.000000   0.000000   0.000000
   22  O  4  Z   -0.000000  -0.000000   0.547243  -0.000000   0.000000
   23  H  5  S    0.030801  -0.185299  -0.045457   0.131620   0.065886
   24  H  5  S    0.013362  -0.080382  -0.019719   0.155813   0.033586
   25  H  6  S    0.151804   0.110122  -0.108281   0.139967   0.296470
   26  H  6  S    0.059299   0.043017  -0.042298   0.160020   0.147733

                     21         22         23         24         25

   21  O  4  Y    0.675015
   22  O  4  Z    0.000000   0.675015
   23  H  5  S   -0.396367  -0.097235   1.395678
   24  H  5  S   -0.202049  -0.049566   0.259735   0.241917
   25  H  6  S    0.215065  -0.211470  -0.043608   0.021208   1.395678
   26  H  6  S    0.107168  -0.105377   0.021208   0.065695   0.259735

                     26

   26  H  6  S    0.241917
 ...... END OF ONE-ELECTRON INTEGRALS ......
 STEP CPU TIME =     0.01 TOTAL CPU TIME =          0.1 (      0.0 MIN)
 TOTAL WALL CLOCK TIME=          0.1 SECONDS, CPU UTILIZATION IS    99.69%

          -------------
          GUESS OPTIONS
          -------------
          GUESS =HUCKEL            NORB  =       0          NORDER=       0
          MIX   =       F          PRTMO =       F          PUNMO =       F
          TOLZ  = 1.0E-08          TOLE  = 1.0E-05
          SYMDEN=       F          PURIFY=       F

 INITIAL GUESS ORBITALS GENERATED BY HUCKEL   ROUTINE.
 HUCKEL GUESS REQUIRES     10014 WORDS.

 SYMMETRIES FOR INITIAL GUESS ORBITALS FOLLOW.   BOTH SET(S).
    10 ORBITALS ARE OCCUPIED (    2 CORE ORBITALS).
     3=A        4=A        5=A        6=A        7=A        8=A        9=A   
    10=A       11=A       12=A       13=A       14=A       15=A       16=A   
    17=A       18=A       19=A       20=A   
 ...... END OF INITIAL ORBITAL SELECTION ......
 STEP CPU TIME =     0.00 TOTAL CPU TIME =          0.1 (      0.0 MIN)
 TOTAL WALL CLOCK TIME=          0.1 SECONDS, CPU UTILIZATION IS    99.70%

 There are           0 separated and       1 SCF (       0 of them correlated) dimers.
 Estimate of max dimer size:   52 AOs,   20 occ. MOs

 Fragment statistics

      I  NAME     Q NAT0 NATB NA  NAO LAY MUL SCFTYP        NOP     MOL    CONV
 ==============================================================================
      1 001       0    6   0   10   26 1  1 G RHF             0      -1      -1
      2 002       0    6   0   10   26 1  1 G RHF             0      -1      -1
 locfmo:
 nactfmo:                    0
 nmdfrg1:                    1                    1
 nmdfrg2:                    0                    0

 Close fragment pairs, distance relative to vdW radii


 RHF      monomer      2 corr= NONE       , L1=    26, L0=    26 ID=      1


 Resetting LABSIZ= 1 2


          ********************
          1 ELECTRON INTEGRALS
          ********************
 OVERLAP MATRIX

                      1          2          3          4          5

    1  O  1  S    1.000000
    2  O  1  S    0.233690   1.000000
    3  O  1  X   -0.000000  -0.000000   1.000000
    4  O  1  Y    0.000000  -0.000000   0.000000   1.000000
    5  O  1  Z    0.000000  -0.000000  -0.000000   0.000000   1.000000
    6  O  1  S    0.167280   0.763641   0.000000  -0.000000   0.000000
    7  O  1  X   -0.000000   0.000000   0.501521   0.000000   0.000000
    8  O  1  Y    0.000000   0.000000   0.000000   0.501521   0.000000
    9  O  1  Z    0.000000   0.000000   0.000000   0.000000   0.501521
   10  H  2  S    0.031299   0.230691   0.265442   0.040638   0.041797
   11  H  2  S    0.066998   0.370738   0.144546   0.022129   0.022761
   12  H  3  S    0.033961   0.243874  -0.075354   0.195640  -0.190618
   13  H  3  S    0.068455   0.377755  -0.039321   0.102088  -0.099468
   14  O  4  S    0.000000   0.000000   0.000000  -0.000000  -0.000000
   15  O  4  S    0.000000   0.000001   0.000000  -0.000005  -0.000001
   16  O  4  X   -0.000000  -0.000000   0.000001   0.000000   0.000000
   17  O  4  Y    0.000000   0.000005   0.000000  -0.000015  -0.000004
   18  O  4  Z    0.000000   0.000001   0.000000  -0.000004  -0.000000
   19  O  4  S    0.000145   0.002566   0.000113  -0.003803  -0.000996
   20  O  4  X   -0.000022  -0.000314   0.001443   0.000472   0.000124
   21  O  4  Y    0.000731   0.010523   0.000472  -0.014361  -0.004142
   22  O  4  Z    0.000191   0.002756   0.000124  -0.004142   0.000372
   23  H  5  S    0.000303   0.010458  -0.000816  -0.018028  -0.004889
   24  H  5  S    0.019449   0.126052  -0.003882  -0.085729  -0.023248
   25  H  6  S    0.000000   0.000000  -0.000000  -0.000001  -0.000000
   26  H  6  S    0.000342   0.003680  -0.000825  -0.004355  -0.000295

                      6          7          8          9         10

    6  O  1  S    1.000000
    7  O  1  X    0.000000   1.000000
    8  O  1  Y    0.000000   0.000000   1.000000
    9  O  1  Z   -0.000000   0.000000   0.000000   1.000000
   10  H  2  S    0.412246   0.565088   0.086512   0.088980   1.000000
   11  H  2  S    0.671218   0.473958   0.072560   0.074630   0.658292
   12  H  3  S    0.423381  -0.154915   0.402199  -0.391876   0.045998
   13  H  3  S    0.680496  -0.128236   0.332933  -0.324388   0.214284
   14  O  4  S    0.000145   0.000022  -0.000731  -0.000191   0.000000
   15  O  4  S    0.002566   0.000314  -0.010523  -0.002756   0.000002
   16  O  4  X   -0.000113   0.001443   0.000472   0.000124   0.000001
   17  O  4  Y    0.003803   0.000472  -0.014361  -0.004142   0.000005
   18  O  4  Z    0.000996   0.000124  -0.004142   0.000372   0.000001
   19  O  4  S    0.026175   0.002038  -0.068320  -0.017892   0.001266
   20  O  4  X   -0.002038   0.026017   0.005320   0.001393   0.001552
   21  O  4  Y    0.068320   0.005320  -0.152146  -0.046699   0.004935
   22  O  4  Z    0.017892   0.001393  -0.046699   0.013946   0.001491
   23  H  5  S    0.089812  -0.009832  -0.217114  -0.058878   0.002414
   24  H  5  S    0.304814  -0.017371  -0.383594  -0.104024   0.065759
   25  H  6  S    0.000663  -0.000549  -0.002897  -0.000196   0.000000
   26  H  6  S    0.023087  -0.010117  -0.053383  -0.003611   0.001265

                     11         12         13         14         15

   11  H  2  S    1.000000
   12  H  3  S    0.214284   1.000000
   13  H  3  S    0.501891   0.658292   1.000000
   14  O  4  S    0.000584   0.000000   0.000211   1.000000
   15  O  4  S    0.005882   0.000000   0.002416   0.233690   1.000000
   16  O  4  X    0.001962  -0.000000  -0.000303  -0.000000  -0.000000
   17  O  4  Y    0.006239   0.000000   0.003003  -0.000000  -0.000000
   18  O  4  Z    0.001885   0.000000   0.000042  -0.000000   0.000000
   19  O  4  S    0.032504   0.000371   0.016987   0.167280   0.763641
   20  O  4  X    0.021059  -0.000173  -0.004190  -0.000000  -0.000000
   21  O  4  Y    0.066965   0.001711   0.041471   0.000000  -0.000000
   22  O  4  Z    0.020231   0.000024   0.000586   0.000000   0.000000
   23  H  5  S    0.065759   0.000954   0.045121   0.031220   0.230298
   24  H  5  S    0.242358   0.045121   0.192069   0.066953   0.370524
   25  H  6  S    0.001265   0.000000   0.000650   0.033964   0.243890
   26  H  6  S    0.020955   0.000650   0.013860   0.068456   0.377764

                     16         17         18         19         20

   16  O  4  X    1.000000
   17  O  4  Y    0.000000   1.000000
   18  O  4  Z    0.000000   0.000000   1.000000
   19  O  4  S    0.000000   0.000000   0.000000   1.000000
   20  O  4  X    0.501521   0.000000   0.000000   0.000000   1.000000
   21  O  4  Y    0.000000   0.501521   0.000000   0.000000   0.000000
   22  O  4  Z    0.000000   0.000000   0.501521   0.000000   0.000000
   23  H  5  S   -0.043233   0.260255   0.063762   0.411908  -0.092136
   24  H  5  S   -0.023573   0.141906   0.034767   0.670934  -0.077309
   25  H  6  S   -0.198532  -0.144053   0.141880   0.423395  -0.408129
   26  H  6  S   -0.103592  -0.075166   0.074032   0.680507  -0.337836

                     21         22         23         24         25

   21  O  4  Y    1.000000
   22  O  4  Z    0.000000   1.000000
   23  H  5  S    0.554638   0.135885   1.000000
   24  H  5  S    0.465381   0.114017   0.658292   1.000000
   25  H  6  S   -0.296135   0.291667   0.046101   0.214473   1.000000
   26  H  6  S   -0.245131   0.241433   0.214473   0.502164   0.658292

                     26

   26  H  6  S    1.000000
 BARE NUCLEUS HAMILTONIAN INTEGRALS (H=T+V)

                      1          2          3          4          5

    1  O  1  S  -35.029632
    2  O  1  S   -7.831013 -11.908248
    3  O  1  X   -0.014679  -0.099942 -10.484390
    4  O  1  Y    0.010753   0.073733   0.003683 -10.486946
    5  O  1  Z    0.018756   0.127714  -0.027046   0.026511 -10.445170
    6  O  1  S   -5.703775  -8.905684  -0.094985   0.075083   0.121995
    7  O  1  X   -0.002023  -0.064479  -4.782736   0.003206  -0.024906
    8  O  1  Y    0.001482   0.051648   0.003206  -4.788970   0.023016
    9  O  1  Z    0.002585   0.082892  -0.024906   0.023016  -4.746211
   10  H  2  S   -1.072513  -2.623188  -2.606965  -0.376842  -0.388415
   11  H  2  S   -2.287967  -4.262992  -1.438289  -0.171422  -0.162448
   12  H  3  S   -1.162947  -2.759016   0.716698  -1.882242   1.870454
   13  H  3  S   -2.337388  -4.333075   0.334698  -0.944770   1.015546
   14  O  4  S    0.000000  -0.000000  -0.000000   0.000000   0.000000
   15  O  4  S   -0.000000  -0.000030  -0.000003   0.000093   0.000024
   16  O  4  X    0.000000   0.000003  -0.000011  -0.000009  -0.000002
   17  O  4  Y   -0.000000  -0.000092  -0.000008   0.000274   0.000075
   18  O  4  Z   -0.000000  -0.000024  -0.000002   0.000075   0.000008
   19  O  4  S   -0.005007  -0.029833  -0.001330   0.040074   0.010598
   20  O  4  X    0.000751   0.003508  -0.014864  -0.004780  -0.001286
   21  O  4  Y   -0.025215  -0.120819  -0.005484   0.147839   0.043108
   22  O  4  Z   -0.006602  -0.031567  -0.001455   0.042571  -0.003699
   23  H  5  S   -0.010666  -0.122050   0.008071   0.190923   0.052001
   24  H  5  S   -0.665181  -1.444582   0.023457   0.848517   0.241630
   25  H  6  S   -0.000000  -0.000008   0.000004   0.000024   0.000002
   26  H  6  S   -0.011736  -0.042008   0.007886   0.044331   0.003461

                      6          7          8          9         10

    6  O  1  S   -9.256512
    7  O  1  X   -0.138993  -6.669625
    8  O  1  Y    0.215650   0.006033  -6.801977
    9  O  1  Z    0.200324  -0.058517   0.021460  -6.586817
   10  H  2  S   -3.526977  -4.016413  -0.565493  -0.599884  -6.657948
   11  H  2  S   -5.577369  -3.040063  -0.260002  -0.335284  -4.654797
   12  H  3  S   -3.600766   1.065888  -2.779194   2.769667  -0.488802
   13  H  3  S   -5.611167   0.712075  -1.895656   2.130240  -1.768744
   14  O  4  S   -0.004997  -0.000748   0.025159   0.006587  -0.000000
   15  O  4  S   -0.030761  -0.003444   0.124155   0.032460  -0.000030
   16  O  4  X    0.001596  -0.015014  -0.006456  -0.001664  -0.000023
   17  O  4  Y   -0.041994  -0.004666   0.154775   0.044475  -0.000076
   18  O  4  Z   -0.011075  -0.001208   0.044880  -0.003407  -0.000023
   19  O  4  S   -0.216363  -0.015155   0.549134   0.143947  -0.012111
   20  O  4  X    0.017440  -0.180758  -0.044431  -0.011647  -0.013070
   21  O  4  Y   -0.543431  -0.038020   1.141300   0.347445  -0.046261
   22  O  4  Z   -0.142173  -0.009947   0.346714  -0.090385  -0.013780
   23  H  5  S   -0.737834   0.069485   1.702511   0.461139  -0.026373
   24  H  5  S   -2.498989   0.080824   2.736158   0.758804  -0.563962
   25  H  6  S   -0.006892   0.004887   0.029343   0.002607  -0.000002
   26  H  6  S   -0.181526   0.064803   0.398296   0.037196  -0.011912

                     11         12         13         14         15

   11  H  2  S   -6.219848
   12  H  3  S   -1.764849  -6.602076
   13  H  3  S   -3.597758  -4.612050  -6.119535
   14  O  4  S   -0.019986  -0.000000  -0.007245 -34.898066
   15  O  4  S   -0.067935  -0.000003  -0.028227  -7.800267 -11.776684
   16  O  4  X   -0.018543   0.000001   0.003404   0.018844   0.128198
   17  O  4  Y   -0.065559  -0.000008  -0.032001  -0.033654  -0.229527
   18  O  4  Z   -0.019919  -0.000000  -0.001038  -0.021966  -0.149567
   19  O  4  S   -0.254526  -0.004046  -0.135379  -5.681767  -8.805223
   20  O  4  X   -0.131763   0.001675   0.029778   0.002597   0.082251
   21  O  4  Y   -0.493589  -0.018212  -0.312898  -0.004637  -0.151324
   22  O  4  Z   -0.146910  -0.000788  -0.014348  -0.003027  -0.096889
   23  H  5  S   -0.534577  -0.011442  -0.367139  -1.067572  -2.681773
   24  H  5  S   -1.784918  -0.407151  -1.439344  -2.278654  -4.256501
   25  H  6  S   -0.012730  -0.000000  -0.006403  -1.158942  -2.740690
   26  H  6  S   -0.157742  -0.006650  -0.103767  -2.328629  -4.291194

                     16         17         18         19         20

   16  O  4  X  -10.318203
   17  O  4  Y   -0.017589 -10.401474
   18  O  4  Z    0.032598  -0.004406 -10.302139
   19  O  4  S    0.121284  -0.222125  -0.142639  -9.125180
   20  O  4  X   -4.684578  -0.015908   0.029880   0.173824  -6.469066
   21  O  4  Y   -0.015908  -4.765325  -0.005169  -0.413473  -0.034805
   22  O  4  Z    0.029880  -0.005169  -4.670111  -0.226933   0.069418
   23  H  5  S    0.450726  -2.668091  -0.666489  -3.790080   0.731531
   24  H  5  S    0.282070  -1.488619  -0.404685  -5.717999   0.597921
   25  H  6  S    1.930806   1.346214  -1.390082  -3.581253   2.861082
   26  H  6  S    1.043067   0.607725  -0.772613  -5.555440   2.166541

                     21         22         23         24         25

   21  O  4  Y   -6.756264
   22  O  4  Z   -0.037154  -6.441249
   23  H  5  S   -4.446522  -1.105571  -7.730994
   24  H  5  S   -3.458377  -0.919055  -5.361316  -7.277484
   25  H  6  S    1.993155  -2.060947  -0.504142  -1.780500  -6.576892
   26  H  6  S    1.210321  -1.619335  -1.924446  -3.754874  -4.595464

                     26

   26  H  6  S   -6.094339
 KINETIC ENERGY INTEGRALS

                      1          2          3          4          5

    1  O  1  S   29.540147
    2  O  1  S   -2.185404   1.711211
    3  O  1  X    0.000000   0.000000   4.251877
    4  O  1  Y   -0.000000  -0.000000   0.000000   4.251877
    5  O  1  Z   -0.000000   0.000000  -0.000000  -0.000000   4.251877
    6  O  1  S    0.131283   0.480048   0.000000  -0.000000  -0.000000
    7  O  1  X   -0.000000   0.000000   0.547243   0.000000   0.000000
    8  O  1  Y   -0.000000  -0.000000   0.000000   0.547243  -0.000000
    9  O  1  Z    0.000000  -0.000000   0.000000  -0.000000   0.547243
   10  H  2  S   -0.023350   0.005727   0.189507   0.029012   0.029840
   11  H  2  S    0.020191   0.104637   0.081912   0.012540   0.012898
   12  H  3  S   -0.022512   0.016637  -0.057555   0.149428  -0.145593
   13  H  3  S    0.021096   0.108568  -0.022495   0.058404  -0.056905
   14  O  4  S    0.000000  -0.000000  -0.000000   0.000000   0.000000
   15  O  4  S   -0.000000  -0.000018  -0.000002   0.000054   0.000014
   16  O  4  X    0.000000   0.000002  -0.000007  -0.000005  -0.000001
   17  O  4  Y   -0.000000  -0.000054  -0.000005   0.000153   0.000042
   18  O  4  Z   -0.000000  -0.000014  -0.000001   0.000042   0.000004
   19  O  4  S   -0.000419  -0.004590  -0.000162   0.005424   0.001420
   20  O  4  X    0.000052   0.000427  -0.002064  -0.000473  -0.000124
   21  O  4  Y   -0.001736  -0.014310  -0.000473   0.013770   0.004150
   22  O  4  Z   -0.000455  -0.003747  -0.000124   0.004150  -0.000991
   23  H  5  S   -0.001854  -0.023873   0.001361   0.030052   0.008150
   24  H  5  S   -0.001750  -0.001937  -0.000996  -0.021993  -0.005964
   25  H  6  S   -0.000000  -0.000005   0.000002   0.000013   0.000001
   26  H  6  S   -0.000467  -0.003665   0.000617   0.003257   0.000220

                      6          7          8          9         10

    6  O  1  S    0.405009
    7  O  1  X    0.000000   0.675015
    8  O  1  Y    0.000000   0.000000   0.675015
    9  O  1  Z   -0.000000   0.000000   0.000000   0.675015
   10  H  2  S    0.131896   0.404099   0.061865   0.063630   1.395678
   11  H  2  S    0.155954   0.205831   0.031512   0.032411   0.259735
   12  H  3  S    0.139920  -0.112459   0.291973  -0.284479  -0.043571
   13  H  3  S    0.159997  -0.056046   0.145510  -0.141775   0.021140
   14  O  4  S   -0.000419  -0.000052   0.001736   0.000455  -0.000000
   15  O  4  S   -0.004590  -0.000427   0.014310   0.003747  -0.000016
   16  O  4  X    0.000162  -0.002064  -0.000473  -0.000124  -0.000012
   17  O  4  Y   -0.005424  -0.000473   0.013770   0.004150  -0.000039
   18  O  4  Z   -0.001420  -0.000124   0.004150  -0.000991  -0.000012
   19  O  4  S   -0.015145  -0.000629   0.021084   0.005521  -0.002372
   20  O  4  X    0.000629  -0.008072  -0.000205  -0.000054  -0.002329
   21  O  4  Y   -0.021084  -0.000205  -0.001195   0.001802  -0.007406
   22  O  4  Z   -0.005521  -0.000054   0.001802  -0.007606  -0.002237
   23  H  5  S   -0.024392  -0.001090  -0.024079  -0.006530  -0.006524
   24  H  5  S    0.022233  -0.004775  -0.105441  -0.028594  -0.013782
   25  H  6  S   -0.001402   0.000956   0.005047   0.000341  -0.000001
   26  H  6  S   -0.010346   0.002491   0.013144   0.000889  -0.001551

                     11         12         13         14         15

   11  H  2  S    0.241917
   12  H  3  S    0.021140   1.395678
   13  H  3  S    0.065615   0.259735   0.241917
   14  O  4  S   -0.000700  -0.000000  -0.000321  29.540147
   15  O  4  S   -0.005091  -0.000002  -0.002689  -2.185404   1.711211
   16  O  4  X   -0.001208   0.000000   0.000263   0.000000  -0.000000
   17  O  4  Y   -0.003840  -0.000005  -0.002603   0.000000   0.000000
   18  O  4  Z   -0.001160  -0.000000  -0.000037   0.000000   0.000000
   19  O  4  S   -0.012321  -0.000866  -0.008665   0.131283   0.480048
   20  O  4  X   -0.003730   0.000339   0.001291  -0.000000   0.000000
   21  O  4  Y   -0.011861  -0.003352  -0.012780  -0.000000   0.000000
   22  O  4  Z   -0.003583  -0.000047  -0.000181  -0.000000  -0.000000
   23  H  5  S   -0.013782  -0.003123  -0.013866  -0.023372   0.005412
   24  H  5  S    0.003231  -0.013866  -0.004643   0.020164   0.104518
   25  H  6  S   -0.001551  -0.000000  -0.000908  -0.022511   0.016651
   26  H  6  S   -0.007994  -0.000908  -0.006211   0.021097   0.108573

                     16         17         18         19         20

   16  O  4  X    4.251877
   17  O  4  Y    0.000000   4.251877
   18  O  4  Z    0.000000  -0.000000   4.251877
   19  O  4  S    0.000000  -0.000000  -0.000000   0.405009
   20  O  4  X    0.547243  -0.000000  -0.000000   0.000000   0.675015
   21  O  4  Y   -0.000000   0.547243  -0.000000   0.000000   0.000000
   22  O  4  Z   -0.000000  -0.000000   0.547243   0.000000   0.000000
   23  H  5  S   -0.030800   0.185408   0.045424   0.131655  -0.065857
   24  H  5  S   -0.013355   0.080392   0.019696   0.155831  -0.033567
   25  H  6  S   -0.151649  -0.110036   0.108375   0.139930  -0.296283
   26  H  6  S   -0.059265  -0.043002   0.042353   0.160002  -0.147654

                     21         22         23         24         25

   21  O  4  Y    0.675015
   22  O  4  Z    0.000000   0.675015
   23  H  5  S    0.396442   0.097127   1.395678
   24  H  5  S    0.202067   0.049506   0.259735   0.241917
   25  H  6  S   -0.214980   0.211737  -0.043608   0.021208   1.395678
   26  H  6  S   -0.107136   0.105520   0.021208   0.065695   0.259735

                     26

   26  H  6  S    0.241917
 Z-ANGULAR MOMENTUM INTEGRALS

                      1          2          3          4          5

    1  O  1  S   -0.329791
    2  O  1  S   -0.332441   0.346833
    3  O  1  X   -0.414802  -0.286378  -0.220722
    4  O  1  Y    0.215358  -0.246621   0.742383   0.591170
    5  O  1  Z   -0.219625  -0.222189   0.002253  -0.012520   0.017825
    6  O  1  S    0.065351  -0.006447   0.007210   0.011614   0.033896
    7  O  1  X    0.059619   0.020633  -0.046319  -0.036350  -0.025147
    8  O  1  Y   -0.243480  -0.005614   0.109082  -0.104947  -0.163865
    9  O  1  Z   -0.247196  -0.202401   0.043098  -0.176217   0.105446
   10  H  2  S    5.000000  -0.016515   0.674818   0.614957  -0.326837
   11  H  2  S    0.018199  -0.426383   0.270918   0.044247   0.029653
   12  H  3  S    0.138115   0.226718  -0.083796   0.091335   0.085837
   13  H  3  S   -0.173349   0.110068  -0.041720  -0.018759  -0.137355
   14  O  4  S   -0.577753  -0.364618   7.000000   0.289430  -0.514773
   15  O  4  S   -0.040111  -0.283325  -0.067734   1.210396   0.032556
   16  O  4  X    0.076506   2.981519   0.355275  -1.333929  -0.394851
   17  O  4  Y   -0.797749   0.434922  -0.270362  -1.035492  -0.258654
   18  O  4  Z    0.053187   0.265880  -0.003743   0.077308  -0.049437
   19  O  4  S    0.417088  -0.197169  -1.415140  -0.790215  -1.009404
   20  O  4  X    0.245082  -1.509559  -0.241682   1.577325   0.000420
   21  O  4  Y   -0.258683   0.046381   0.163243  -0.143819   0.458091
   22  O  4  Z    0.206935  -0.399532   0.009971  -0.035651  -0.167988
   23  H  5  S   -0.237043   0.317480   0.118481  -0.112530   0.922513
   24  H  5  S    0.013240  -0.022328   0.261693   0.011075  -0.083297
   25  H  6  S   -0.110991  -0.283902   0.107900  -0.029156   0.251916
   26  H  6  S   -0.464452   0.347495  -0.158335  -0.265689   0.284438

                      6          7          8          9         10

    6  O  1  S   -0.004980
    7  O  1  X    0.131380  -0.160325
    8  O  1  Y   -0.010463  -0.135625  -0.107362
    9  O  1  Z    0.606362  -0.015909  -0.208229   0.072889
   10  H  2  S   -0.316369   0.112441  -0.485250   0.465291   0.082282
   11  H  2  S    0.115880   0.038277   0.654347   0.499934  -0.019430
   12  H  3  S    0.140135  -0.049034   0.152934   0.108724  -0.291349
   13  H  3  S    0.059684  -0.023698  -0.003110   0.036364   0.010563
   14  O  4  S   -0.196904  -0.021532   0.154597   0.354174   0.213872
   15  O  4  S    0.872812   0.249191  -0.127537   0.114264  -0.211238
   16  O  4  X   -0.010718  -2.933625  -0.377541   0.212984   0.013412
   17  O  4  Y    9.000000  -0.004244   0.358983   0.058659  -0.017944
   18  O  4  Z   -0.182449   0.015828  -0.162989   0.116356   0.512711
   19  O  4  S    0.535436   0.425560  -1.223931  -0.016644   1.829288
   20  O  4  X    0.002836  -0.001280   0.022271   0.003231  -0.007431
   21  O  4  Y   -0.064395  -0.031377   0.170485  -0.467450   0.459150
   22  O  4  Z   -0.186409  13.000000   0.083527   0.332831   0.389325
   23  H  5  S   -0.675869   0.004891   0.019469   0.253146  -0.241049
   24  H  5  S   -0.263537   0.154863  -0.395560   0.284223   1.000000
   25  H  6  S    0.526249  -0.212945   0.233133  -0.119678  -0.620561
   26  H  6  S   -0.477158   0.333122   0.378099   1.000000   0.000000

                     11         12         13         14         15

   11  H  2  S    0.083006
   12  H  3  S   -0.233760   0.040988
   13  H  3  S    0.160003   0.113907   0.131808
   14  O  4  S    0.623708   0.455875  -0.007973  -0.642568
   15  O  4  S    0.155684  -0.010261  -1.295282  -0.069003   0.372489
   16  O  4  X   -1.466242   0.162040   0.248519  -0.130695   2.761929
   17  O  4  Y   -0.037799  -0.681571  -0.182136   0.042921   0.128450
   18  O  4  Z   -0.031325   0.004631   0.307889  -0.019939   0.234816
   19  O  4  S   -0.001325   0.046186  -0.557941   0.228730  -0.361021
   20  O  4  X    0.000643  -0.027638   0.000290   0.052617  -0.066039
   21  O  4  Y   -0.012146   0.336855  -0.127658  -0.494054  -0.002972
   22  O  4  Z   -0.209658   0.537850  -0.363162   0.559658  -0.372141
   23  H  5  S    0.223659   0.004430  -0.483548   0.476009  -0.499254
   24  H  5  S   -0.001151  -0.301735  -0.112163  -0.074372   0.060869
   25  H  6  S    0.396171  -0.026889   0.365603   0.240461   0.479898
   26  H  6  S    0.000000   0.272077   0.029486  -0.386663  -0.287338

                     16         17         18         19         20

   16  O  4  X   -0.526851
   17  O  4  Y    0.034202   0.251705
   18  O  4  Z   -0.014869   0.863995   0.292439
   19  O  4  S   -0.065419   1.227130  -0.490065  11.000000
   20  O  4  X   -0.013468   0.044386   0.005858  -0.215479   0.036256
   21  O  4  Y   -0.197884   0.133226   0.920441   0.069252   0.862848
   22  O  4  Z    0.003148   0.067857   0.186384   0.107260  -0.139761
   23  H  5  S    1.020774  -0.709663  -0.255496   0.129541  -0.004362
   24  H  5  S    0.609310   0.235362   0.114094   0.143607  -0.102551
   25  H  6  S    0.052575  -0.166353  -0.320156  -0.546635  -0.082017
   26  H  6  S   -0.283303   0.240662   0.159991   0.338374   0.292039

                     21         22         23         24         25

   21  O  4  Y   -0.559702
   22  O  4  Z    0.001600  -0.427650
   23  H  5  S   -0.000487  -0.131093  -0.015367
   24  H  5  S    0.884970  -0.593861  -0.003719   0.016005
   25  H  6  S    0.229015  -0.290356   0.068498  -0.188961   0.036724
   26  H  6  S   -0.294905  -0.167212   0.242271  -0.171117   0.249266

                     26

   26  H  6  S    0.028112

          --------------------
          2 ELECTRON INTEGRALS
          --------------------

 DIRECT SCF METHOD SKIPS INTEGRAL STORAGE ON DISK.
  ...... END OF TWO-ELECTRON INTEGRALS .....
 STEP CPU TIME =     0.01 TOTAL CPU TIME =          0.1 (      0.0 MIN)
 TOTAL WALL CLOCK TIME=          0.1 SECONDS, CPU UTILIZATION IS    99.71%
 SCHWARZ INEQUALITY OVERHEAD:       700 INTEGRALS, T=        0.00
 ESP lfg=    1: NZ      115389 skipped       665 blocks       2 superblocks.

          --------------------
          2 ELECTRON INTEGRALS
          --------------------

 DIRECT SCF METHOD SKIPS INTEGRAL STORAGE ON DISK.
  ...... END OF TWO-ELECTRON INTEGRALS .....
 STEP CPU TIME =     0.03 TOTAL CPU TIME =          0.1 (      0.0 MIN)
 TOTAL WALL CLOCK TIME=          0.1 SECONDS, CPU UTILIZATION IS    99.75%
 ...... END OF ONE-ELECTRON INTEGRALS ......
 STEP CPU TIME =     0.00 TOTAL CPU TIME =          0.1 (      0.0 MIN)
 TOTAL WALL CLOCK TIME=          0.1 SECONDS, CPU UTILIZATION IS    99.75%

          --------------------
          2 ELECTRON INTEGRALS
          --------------------

 THE -PK- OPTION IS OFF, THE INTEGRALS ARE NOT IN SUPERMATRIX FORM.
 STORING   15000 INTEGRALS/RECORD ON DISK, USING 12 BYTES/INTEGRAL.
 TWO ELECTRON INTEGRAL EVALUATION REQUIRES   89461 WORDS OF MEMORY.
 SCHWARZ INEQUALITY OVERHEAD:       350 INTEGRALS, T=        0.00
 II,JST,KST,LST =  1  1  1  1 NREC =         1 INTLOC =    1
 II,JST,KST,LST =  2  1  1  1 NREC =         1 INTLOC =    2
 II,JST,KST,LST =  3  1  1  1 NREC =         1 INTLOC =   34
 II,JST,KST,LST =  4  1  1  1 NREC =         1 INTLOC =  214
 II,JST,KST,LST =  5  1  1  1 NREC =         1 INTLOC =  719
 II,JST,KST,LST =  6  1  1  1 NREC =         1 INTLOC = 1390
 II,JST,KST,LST =  7  1  1  1 NREC =         1 INTLOC = 2260
 II,JST,KST,LST =  8  1  1  1 NREC =         1 INTLOC = 3365
 II,JST,KST,LST =  9  1  1  1 NREC =         1 INTLOC = 4271
 II,JST,KST,LST = 10  1  1  1 NREC =         1 INTLOC =12330
 II,JST,KST,LST = 11  1  1  1 NREC =         2 INTLOC =13282
 II,JST,KST,LST = 12  1  1  1 NREC =         3 INTLOC = 4225
 II,JST,KST,LST = 13  1  1  1 NREC =         3 INTLOC =11020
 II,JST,KST,LST = 14  1  1  1 NREC =         4 INTLOC = 3343
 SCHWARZ INEQUALITY TEST SKIPPED         252 INTEGRAL BLOCKS.
 TOTAL NUMBER OF NONZERO TWO-ELECTRON INTEGRALS =               56946
[...]
   51  H 12  S    0.000000   0.000007  -0.000000   0.000037   0.000001
   52  H 12  S    0.000003   0.000154  -0.000021   0.000670   0.000034

                     36         37         38         39         40

   36  H  8  S    0.212488
   37  H  8  S    0.055360   0.042542
   38  H  9  S   -0.002344  -0.007596   0.180074
   39  H  9  S   -0.006982  -0.004265   0.027817   0.028265
   40  O 10  S   -0.000000  -0.000000   0.000000  -0.000002   2.084469
   41  O 10  S    0.000000   0.000008  -0.000000   0.000034  -0.041552
   42  O 10  X   -0.000000   0.000001  -0.000000   0.000007   0.000000
   43  O 10  Y    0.000000   0.000045   0.000000   0.000059  -0.000000
   44  O 10  Z    0.000000   0.000000  -0.000000   0.000017  -0.000000
   45  O 10  S    0.000006   0.000181   0.000011   0.000359  -0.045610
   46  O 10  X   -0.000000   0.000012  -0.000008   0.000051   0.000000
   47  O 10  Y    0.000022   0.000573   0.000033   0.000559  -0.000000
   48  O 10  Z    0.000000   0.000004  -0.000002   0.000162  -0.000000
   49  H 11  S   -0.000003   0.000147  -0.000012   0.000177  -0.001167
   50  H 11  S   -0.000893  -0.001987  -0.001141  -0.001558   0.001793
   51  H 12  S   -0.000000  -0.000001   0.000000  -0.000001  -0.001234
   52  H 12  S   -0.000000  -0.000017   0.000001  -0.000027   0.001176

                     41         42         43         44         45

   41  O 10  S    0.490686
   42  O 10  X   -0.000000   0.666620
   43  O 10  Y    0.000000  -0.000000   0.568528
   44  O 10  Z    0.000000   0.000000   0.000000   0.739204
   45  O 10  S    0.427278  -0.000000   0.000000   0.000000   0.661964
   46  O 10  X   -0.000000   0.250754  -0.000000   0.000000  -0.000000
   47  O 10  Y    0.000000  -0.000000   0.180986   0.000000   0.000000
   48  O 10  Z    0.000000   0.000000   0.000000   0.291752   0.000000
   49  H 11  S    0.017881   0.001861   0.076179   0.003958   0.031653
   50  H 11  S   -0.016339   0.000344   0.012069  -0.000265  -0.039166
   51  H 12  S    0.019036   0.043980   0.025371   0.021458   0.017742
   52  H 12  S   -0.012232   0.010362   0.006100   0.005668  -0.039431

                     46         47         48         49         50

   46  O 10  X    0.379685
   47  O 10  Y   -0.000000   0.233596
   48  O 10  Z    0.000000   0.000000   0.460001
   49  H 11  S    0.003818   0.103661   0.007016   0.179972
   50  H 11  S    0.001284   0.023226  -0.000469   0.027932   0.029941
   51  H 12  S    0.057892   0.026837   0.029256  -0.002292  -0.007600
   52  H 12  S    0.022158   0.010259   0.012801  -0.007623  -0.005068

                     51         52

   51  H 12  S    0.212226
   52  H 12  S    0.055290   0.042231

               ----- POPULATIONS IN EACH AO -----
                             MULLIKEN      LOWDIN
              1  O  1  S      1.99775     1.99396
              2  O  1  S      0.88734     0.87027
              3  O  1  X      0.91650     0.87046
              4  O  1  Y      0.98230     0.94777
              5  O  1  Z      1.00969     0.97535
              6  O  1  S      1.01506     0.75829
              7  O  1  X      0.62977     0.66983
              8  O  1  Y      0.72455     0.75911
              9  O  1  Z      0.73058     0.77140
             10  H  2  S      0.44368     0.42519
             11  H  2  S      0.06117     0.25295
             12  H  3  S      0.49765     0.47149
             13  H  3  S      0.10183     0.23109
             14  O  4  S      1.99775     1.99395
             15  O  4  S      0.88695     0.87004
             16  O  4  X      0.97894     0.94423
             17  O  4  Y      0.86841     0.81579
             18  O  4  Z      1.06133     1.03427
             19  O  4  S      1.01518     0.75829
             20  O  4  X      0.72343     0.75739
             21  O  4  Y      0.56645     0.61987
             22  O  4  Z      0.79878     0.82666
             23  H  5  S      0.44355     0.42492
             24  H  5  S      0.06217     0.25496
             25  H  6  S      0.49732     0.47125
             26  H  6  S      0.10186     0.23121
             27  O  7  S      1.99775     1.99396
             28  O  7  S      0.88733     0.87027
             29  O  7  X      0.91642     0.87036
             30  O  7  Y      0.98212     0.94757
             31  O  7  Z      1.00995     0.97565
             32  O  7  S      1.01506     0.75829
             33  O  7  X      0.62962     0.66970
             34  O  7  Y      0.72441     0.75900
             35  O  7  Z      0.73089     0.77164
             36  H  8  S      0.49760     0.47145
             37  H  8  S      0.10186     0.23111
             38  H  9  S      0.44371     0.42521
             39  H  9  S      0.06114     0.25294
             40  O 10  S      1.99775     1.99395
             41  O 10  S      0.88695     0.87003
             42  O 10  X      0.97882     0.94409
             43  O 10  Y      0.86838     0.81576
             44  O 10  Z      1.06149     1.03445
             45  O 10  S      1.01518     0.75829
             46  O 10  X      0.72329     0.75728
             47  O 10  Y      0.56646     0.61988
             48  O 10  Z      0.79893     0.82677
             49  H 11  S      0.44350     0.42487
             50  H 11  S      0.06222     0.25498
             51  H 12  S      0.49737     0.47130
             52  H 12  S      0.10181     0.23119

          ----- MULLIKEN ATOMIC OVERLAP POPULATIONS -----
          (OFF-DIAGONAL ELEMENTS NEED TO BE MULTIPLIED BY 2)

             1           2           3           4           5

    1    8.4072667
    2    0.2280663   0.2639750
    3    0.2558493  -0.0211902   0.3657701
    4   -0.0215716   0.0012787   0.0008513   8.4119510
    5    0.0411347  -0.0025342  -0.0027383   0.2273422   0.2657811
    6    0.0009527  -0.0000265  -0.0000185   0.2571938  -0.0225835
    7   -0.0001127   0.0003782   0.0000004  -0.0204748   0.0013281
    8    0.0000004  -0.0000053   0.0000000   0.0010261  -0.0000306
    9    0.0003787   0.0000461  -0.0000053   0.0393556  -0.0024390
   10   -0.0204747   0.0393490   0.0010264  -0.0001086   0.0003965
   11    0.0013284  -0.0024384  -0.0000306   0.0003967   0.0000705
   12    0.0007208  -0.0020514  -0.0000416   0.0000004  -0.0000065

             6           7           8           9          10

    6    0.3650376
    7    0.0007209   8.4072875
    8   -0.0000416   0.2558484   0.3657502
    9   -0.0020520   0.2280610  -0.0211875   0.2639724
   10    0.0000004  -0.0215729   0.0008509   0.0012787   8.4119710
   11   -0.0000065   0.0411341  -0.0027364  -0.0025345   0.2273375
   12   -0.0000000   0.0009528  -0.0000185  -0.0000265   0.2571983

            11          12

   11    0.2657758
   12   -0.0225834   0.3650380

          TOTAL MULLIKEN AND LOWDIN ATOMIC POPULATIONS
       ATOM         MULL.POP.                    LOW.POP.

          TOTAL MULLIKEN AND LOWDIN ATOMIC POPULATIONS
       ATOM         MULL.POP.    CHARGE          LOW.POP.     CHARGE
    1 O             8.893539                     8.616445
    1 O             8.893539   -0.893539         8.616445   -0.616445
    2 H             0.504847                     0.678134
    2 H             0.504847    0.495153         0.678134    0.321866
    3 H             0.599473                     0.702580
    3 H             0.599473    0.400527         0.702580    0.297420
    4 O             8.897241                     8.620494
    4 O             8.897241   -0.897241         8.620494   -0.620494
    5 H             0.505721                     0.679881
    5 H             0.505721    0.494279         0.679881    0.320119
    6 H             0.599177                     0.702465
    6 H             0.599177    0.400823         0.702465    0.297535
    7 O             8.893551                     8.616442
    7 O             8.893551   -0.893551         8.616442   -0.616442
    8 H             0.599456                     0.702556
    8 H             0.599456    0.400544         0.702556    0.297444
    9 H             0.504848                     0.678151
    9 H             0.504848    0.495152         0.678151    0.321849
   10 O             8.897252                     8.620513
   10 O             8.897252   -0.897252         8.620513   -0.620513
   11 H             0.505713                     0.679851
   11 H             0.505713    0.494287         0.679851    0.320149
   12 H             0.599182                     0.702486
   12 H             0.599182    0.400818         0.702486    0.297514

          MULLIKEN SPHERICAL HARMONIC POPULATIONS
       ATOM           S       P       D      F      G      H      I    TOTAL
    1 O             3.90    4.99    0.00   0.00   0.00   0.00   0.00    8.89
    2 H             0.50    0.00    0.00   0.00   0.00   0.00   0.00    0.50
    3 H             0.60    0.00    0.00   0.00   0.00   0.00   0.00    0.60
    4 O             3.90    5.00    0.00   0.00   0.00   0.00   0.00    8.90
    5 H             0.51    0.00    0.00   0.00   0.00   0.00   0.00    0.51
    6 H             0.60    0.00    0.00   0.00   0.00   0.00   0.00    0.60
    7 O             3.90    4.99    0.00   0.00   0.00   0.00   0.00    8.89
    8 H             0.60    0.00    0.00   0.00   0.00   0.00   0.00    0.60
    9 H             0.50    0.00    0.00   0.00   0.00   0.00   0.00    0.50
   10 O             3.90    5.00    0.00   0.00   0.00   0.00   0.00    8.90
   11 H             0.51    0.00    0.00   0.00   0.00   0.00   0.00    0.51
   12 H             0.60    0.00    0.00   0.00   0.00   0.00   0.00    0.60

          -------------------------------
          BOND ORDER AND VALENCE ANALYSIS     BOND ORDER THRESHOLD=0.050
          -------------------------------

                   BOND                       BOND                       BOND
  ATOM PAIR DIST  ORDER      ATOM PAIR DIST  ORDER      ATOM PAIR DIST  ORDER
    1   2  0.984  0.657        1   3  0.965  0.801        1   5  1.777  0.090
    2  10  1.792  0.086        4   5  0.985  0.655        4   6  0.965  0.802
    4   9  1.792  0.086        7   8  0.965  0.801        7   9  0.984  0.657
    7  11  1.777  0.090       10  11  0.985  0.655       10  12  0.965  0.802

                       TOTAL       BONDED        FREE
      ATOM            VALENCE     VALENCE     VALENCE
    1 O                 1.552       1.552       0.000
    2 H                 0.746       0.746      -0.000
    3 H                 0.806       0.806      -0.000
    4 O                 1.546       1.546       0.000
    5 H                 0.747       0.747      -0.000
    6 H                 0.805       0.805       0.000
    7 O                 1.552       1.552       0.000
    8 H                 0.806       0.806      -0.000
    9 H                 0.746       0.746      -0.000
   10 O                 1.546       1.546       0.000
   11 H                 0.747       0.747      -0.000
   12 H                 0.805       0.805       0.000

          ---------------------
          ELECTROSTATIC MOMENTS
          ---------------------

 POINT   1           X           Y           Z (BOHR)    CHARGE
                -0.000109    0.000056   -0.000033        0.00 (A.U.)
         DX          DY          DZ         /D/  (DEBYE)
     0.002060   -0.000837    0.000346    0.002250
 ...... END OF PROPERTY EVALUATION ......
 STEP CPU TIME =     0.01 TOTAL CPU TIME =          1.8 (      0.0 MIN)
 TOTAL WALL CLOCK TIME=          1.8 SECONDS, CPU UTILIZATION IS    99.41%
 Redoing 1e ESP:                    -1
 STEP CPU TIME =     0.00 TOTAL CPU TIME =          1.8 (      0.0 MIN)
 TOTAL WALL CLOCK TIME=          1.8 SECONDS, CPU UTILIZATION IS    99.41%
 STEP CPU TIME =     0.00 TOTAL CPU TIME =          1.8 (      0.0 MIN)
 TOTAL WALL CLOCK TIME=          1.8 SECONDS, CPU UTILIZATION IS    99.41%

  iFrag=      2 jFrag=      1 EFMOu=  -303.996128247 Tr= 0.000000000
 STEP CPU TIME =     0.00 TOTAL CPU TIME =          1.8 (      0.0 MIN)
 TOTAL WALL CLOCK TIME=          1.8 SECONDS, CPU UTILIZATION IS    99.41%

 Dimer synchronisation for layer 1 took     0.0 s.
 STEP CPU TIME =     0.00 TOTAL CPU TIME =          1.8 (      0.0 MIN)
 TOTAL WALL CLOCK TIME=          1.8 SECONDS, CPU UTILIZATION IS    99.41%
 STEP CPU TIME =     0.00 TOTAL CPU TIME =          1.8 (      0.0 MIN)
 TOTAL WALL CLOCK TIME=          1.8 SECONDS, CPU UTILIZATION IS    99.41%


         FMO properties
         ###############


 Layer 1 converged in  7 iterations (max200, conv .10E-06).


 Nuclear repulsion energy:            140.712110486
 Total number of atoms:                    12
 Total number of electrons:                40
 Total charge:                              0
 Total spin multiplicity:                   1
 Total number of basis functions:          52
 Total number of molecular orbitals:       52

 Energy values (E) are given with external ESP subtracted.

 D(dipole), Q(quadrupole) and O(octopole) moments are printed in the order:
 X,Y,Z; XX,YY,ZZ,XY,XZ,YZ; XXX,XXY,XXZ,XYY,YYY,YYZ,XZZ,YZZ,ZZZ,XYZ,
 computed at the point:   -0.00010875   0.00005557  -0.00003251

 One-body FMO properties.
 =======================

                      EPL0d    EPL0s    EPL0   EPLd*PLd    DX        DY        DZ
    1(001     ,L1)    0.000    0.000    0.000*********   0.14792  -3.71518  -0.71638
    2(002     ,L1)    0.000    0.000    0.000*********  -0.14585   3.71438   0.71655

 Frontier molecular orbital (FMO!) properties based on Koopmans' theorem.
 Electronegativity = - chemical potential. All values are in eV.

  Frag  Ionization    Electron    Chemical    Global       Global  Electrophili-
         potential    affinity    potential  hardness     softness  city index
 EA and related properties are often very inaccurate.
 -------------------------------------------------------------------------------
     1   13.494764    5.272773   -9.383768    8.221991    0.121625      5.354853
     2   13.494780    5.273104   -9.383942    8.221676    0.121630      5.355256

 Total energy of the molecule: Euncorr(1)=     -303.950599940
 Dipole moment D(xyz),DA(1)=    0.0020698   -0.0007980    0.0001704    0.0022248

 Two-body FMO properties.
 ========================

 DL: D=C dynamically correlated (MP2,CI), D=N not dynamically correlated
 (RHF,DFT). D=S separated dimer: semiclassical interaction (ES), D=M MCSCF.
 L stands for layer, Z is the monomer charge product, R is the interfragment
 distance relative to van-der-Waals radii (-1.00 is printed if distances are
 not computed). dDIJ*VIJ is the explicit embedded charge transfer energy.
 Q(I->J) is the charge transfer amount, printed as zero if not available.
 Positive values correspond to I in IJ having extra negative charge.
 total = (EIJ-EI-EJ)+dDIJ*VIJ = Ees+Eex+Ect+mix+Edisp+Gsol (all are in kcal/mol).

    I    J DL  Z    R   Q(I->J)  EIJ-EI-EJ dDIJ*VIJ    total     Ees      Eex    Ect+mix   Erc+di    Gsol         
 ---------------------------------------------------------------------------------------------------------
    2    1 N1  0   0.69 -0.0000   -28.569    0.000   -28.569   -40.931   19.695   -7.334    0.000    0.000

 Total energy of the molecule: Euncorr(2)=     -303.996128247

 Interaction energy relative to PL state:
 Eint = EES + EEX + E(CT+mix) + EDI
 Eint = E(FMO2) - E(FMO1) - E(BDA)
 Eint - interaction relative to PL state using PL state densities.

     Electrostatic (PL state, incl. EPLs)  EES         -40.931
     Exchange (PL state)                   EEX          19.695
     Charge transfer (PL state)        E(CT+mix)        -7.334
     Dispersion (PL state)                 EDI           0.000
         Total interaction (PL state)         Eint         -28.569

 Dipole moment D(xyz),DA(2)=    0.0020599   -0.0008365    0.0003458    0.0022500

 Charge transfer for each fragment:

  IFG QFG  DeltaQ     and its contributions from JFG, Q(JFG->IFG).
 ------------------------------------------------------------------------------
    1  0  -0.0000 =    2-> -0.0000
    2  0   0.0000 =    1->  0.0000

 Total absolute monomer transf. charge   =    0.000005
 Total amount of absolute transf. charge =    0.000003

                ONE ELECTRON ENERGY =         -700.0713147555
                TWO ELECTRON ENERGY =          255.3630760216
           NUCLEAR REPULSION ENERGY =          140.7121104864
                                      -----------------------
                       TOTAL ENERGY =         -303.9961282474

 ELECTRON-ELECTRON POTENTIAL ENERGY =          255.3630760216
  NUCLEUS-ELECTRON POTENTIAL ENERGY =        -1003.8802518369
   NUCLEUS-NUCLEUS POTENTIAL ENERGY =          140.7121104864
                                      -----------------------
             TOTAL POTENTIAL ENERGY =         -607.8050653289
               TOTAL KINETIC ENERGY =          303.8089370815
                 VIRIAL RATIO (V/T) =            2.0006161477

 n-body Mulliken  atomic charges Q(n)

    IAT  IFG   Z       Q(1)        Q(2)        Q(3)
     1    1   8.0   -0.851924   -0.893551
     2    1   1.0    0.409719    0.400544
     3    1   1.0    0.485977    0.495152
     4    1   8.0   -0.938207   -0.897252
     5    1   1.0    0.493438    0.494287
     6    1   1.0    0.400996    0.400818
     7    2   8.0   -0.851911   -0.893539
     8    2   1.0    0.485975    0.495153
     9    2   1.0    0.409702    0.400527
    10    2   8.0   -0.938197   -0.897241
    11    2   1.0    0.493430    0.494279
    12    2   1.0    0.401001    0.400823

 Done with FMO properties.
 STEP CPU TIME =     0.00 TOTAL CPU TIME =          1.8 (      0.0 MIN)
 TOTAL WALL CLOCK TIME=          1.8 SECONDS, CPU UTILIZATION IS    99.41%
 STEP CPU TIME =     0.00 TOTAL CPU TIME =          1.8 (      0.0 MIN)
 TOTAL WALL CLOCK TIME=          1.8 SECONDS, CPU UTILIZATION IS    99.41%

 Total timing statistics in pairs (CPU,wall) for each rank, sec

    Rank   total     SCF    corr     DFT    CPHF     EFP    solv     ESP    geom
 -------------------------------------------------------------------------------
       1       1.8      1.1      0.0      0.0    0.0   0.0    0.0     0.4    0.0
       1       1.8      1.1      0.0      0.0    0.0   0.0    0.0     0.4    0.0
averaged       1.8      1.1      0.0      0.0    0.0   0.0    0.0     0.4    0.0
averaged       1.8      1.1      0.0      0.0    0.0   0.0    0.0     0.4    0.0

  FMO  timing statistics in pairs (CPU,wall) for each rank, sec

    Rank  FMOini FMOscf1  FMOdm1 FMOsyn1 FMOscf2  FMOes2 FMOsyn2 FMOscf3 FMOsyn3
 -------------------------------------------------------------------------------
       1    0.1       1.2    0.0    0.0       0.5       0.0    0.0    0.0    0.0
       1    0.1       1.2    0.0    0.0       0.5       0.0    0.0    0.0    0.0
averaged    0.1       1.2    0.0    0.0       0.5       0.0    0.0    0.0    0.0
averaged    0.1       1.2    0.0    0.0       0.5       0.0    0.0    0.0    0.0
               580000  WORDS OF DYNAMIC MEMORY USED
 EXECUTION OF GAMESS TERMINATED NORMALLY 14:04:56 20-AUG-2025    
 DDI: 263640 bytes (0.3 MB / 0 MWords) used by master data server.

 ----------------------------------------
 CPU timing information for all processes
 ========================================
 0: 1.637 + 0.192 = 1.830
 ----------------------------------------
 ddikick.x: exited gracefully.
----- accounting info -----
Files used on the master node theomolsci-S2600STB were:
-rw-rw-r-- 1 theomolsci theomolsci  208327 Aug 20 14:04 /home/theomolsci/scr/water-4_RHF_631g_temp.dat
-rw-rw-r-- 1 theomolsci theomolsci    1562 Aug 20 14:04 /home/theomolsci/scr/water-4_RHF_631g_temp.F05
-rw-rw-r-- 1 theomolsci theomolsci 9360832 Aug 20 14:04 /home/theomolsci/scr/water-4_RHF_631g_temp.F08
-rw-rw-r-- 1 theomolsci theomolsci   65440 Aug 20 14:04 /home/theomolsci/scr/water-4_RHF_631g_temp.F10
-rw-rw-r-- 1 theomolsci theomolsci   81920 Aug 20 14:04 /home/theomolsci/scr/water-4_RHF_631g_temp.F40
Wednesday 20 August 2025 02:04:59 PM IST
0.0u 0.0s 0:05.02 3.3% 0+0k 0+16io 0pf+0w
