----- GAMESS execution script 'rungms' -----
This job is running on host theomolsci-S2600STB
under operating system Linux at Tuesday 26 August 2025 02:27:31 PM IST
Available scratch disk space (Kbyte units) at beginning of the job is
Filesystem      1K-blocks       Used  Available Use% Mounted on
/dev/sda2      3844033552 1221807864 2426884684  34% /
GAMESS temporary binary files will be written to /home/theomolsci/scr
GAMESS supplementary output files will be written to /home/theomolsci/scr
Copying input file ./water-4_RHF_621g_temp.inp to your run's scratch directory...

 Distributed Data Interface kickoff program.
 Initiating 1 compute processes on 1 nodes to run the following command:
 /home/theomolsci/gamess/gamess.01.x water-4_RHF_621g_temp 

          *******************************************************
          *                                                     *
          *          GAMESS VERSION = 30 SEP 2020 (R2)          *
          *                                                     *
          *              doi.org/10.1063/5.0005188              *
          *                                                     *
          **************** 64 BIT LINUX VERSION *****************

  GAMESS HAS BEEN MADE POSSIBLE WITH IMPORTANT CONTRIBUTIONS FROM
  THE FOLLOWING INDIVIDUALS (IN ALPHABETICAL ORDER):

     IVANA ADAMOVIC, CHRISTINE AIKENS, TOMOKO AKAMA,
     YURI ALEXEEV, YURIKO AOKI, POOJA ARORA, TOSHIO ASADA,
     ANDREY ASADCHEV, KIM K. BALDRIDGE, PRADIPTA BANDYOPADHYAY,
     MARIA BARYSZ, ROB BELL, JONATHAN BENTZ, COLLEEN BERTONI,
     JERRY A. BOATZ, BRETT BODE, KURT BRORSEN, KURT R. BRORSEN,
     LAIMUTIS BYTAUTAS, CALEB CARLIN, LAURA CARRINGTON,
     GALINA CHABAN, BENOIT CHAMPAGNE, WEI CHEN, MAHITO CHIBA,
     DAN CHIPMAN, CHEOL HO CHOI, TANNER CULPITT,
     DIPAYAN DATTA, PAUL DAY, ALBERT DEFUSCO,
     NUWAN DESILVA, J. EMILIANO DEUSTUA,
     TIM DUDLEY, MICHEL DUPUIS, STEVEN T. ELBERT,
     DMITRI FEDOROV, ALEX FINDLATER, GRAHAM FLETCHER,
     MARK FREITAG, CHRISTIAN FRIEDL, DAVID GARMER,
     IGOR S. GERASIMOV, KURT GLAESEMANN, MARK S. GORDON,
     JEFFREY GOUR, FENG LONG GU, EMILIE B. GUIDEZ,
     ANASTASIA GUNINA, SHARON HAMMES-SCHIFFER, MASATAKE HARUTA,
     KIMIHIKO HIRAO, YASUHIRO IKABATA, TZVETELIN IORDANOV,
     STEPHAN IRLE, KAZUYA ISHIMURA, JOE IVANIC, FRANK JENSEN,
     JAN H. JENSEN, VISVALDAS KAIRYS, MUNEAKI KAMIYA,
     MICHIO KATOUDA, NAOAKI KAWAKAMI, DAN KEMP, BERNARD KIRTMAN,
     KAZUO KITAURA, MARIUSZ KLOBUKOWSKI, MASATO KOBAYASHI,
     PRAKASHAN KORAMBATH, JACEK KORCHOWIEC, SHIRO KOSEKI,
     KAROL KOWALSKI, JIMMY KROMANN, STANISLAW KUCHARSKI,
     HENRY KURTZ, SAROM SOK LEANG, HUI LI, SHUHUA LI, WEI LI,
     JESSE LUTZ, ALEKSANDR O. LYKHIN, MARCIN MAKOWSKI,
     JOANI MATO, NIKITA MATSUNAGA, BENEDETTA MENNUCCI,
     GRANT MERRILL, NORIYUKI MINEZAWA, VLADIMIR MIRONOV,
     EISAKU MIYOSHI, JOHN A. MONTGOMERY JR., HIROTOSHI MORI,
     JONATHAN MULLIN, MONIKA MUSIAL, SHIGERU NAGASE,
     TAKESHI NAGATA, HIROMI NAKAI, TAKAHITO NAKAJIMA,
     YUYA NAKAJIMA, HARUYUKI NAKANO, HIROYA NAKATA, SEAN NEDD,
     HEATHER NETZLOFF, KIET A. NGUYEN, YOSHIO NISHIMOTO,
     BOSILJKA NJEGIC, RYAN OLSON, MIKE PAK, ROBERTO PEVERATI,
     BUU PHAM, PIOTR PIECUCH, ANNA POMOGAEVA, DAVID POOLE,
     SPENCER PRUITT, OLIVIER QUINET, LUKE ROSKOP,
     KLAUS RUEDENBERG, ANDREW SAND, TOSAPORN SATTASATHUCHANA,
     NOZOMI SAWADA, MICHAEL W. SCHMIDT, PATRICK E. SCHNEIDER,
     JUNJI SEINO, PRACHI SHARMA, JUN SHEN, JIM SHOEMAKER,
     YINAN SHU, DEJUN SI, JONATHAN SKONE, LYUDMILA SLIPCHENKO,
     TONY SMITH, JIE SONG, MARK SPACKMAN, CASPER STEINMANN,
     WALT STEVENS, PEIFENG SU, SHUJUN SU, CHET SWALINA,
     TETSUYA TAKETSUGU, ZHEN TAO, NANDUN THELLAMUREGE
     SEIKEN TOKURA, JACOPO TOMASI, TSUGUKI TOUMA, TAKAO TSUNEDA,
     HIROAKI UMEDA, JORGE LUIS GALVEZ VALLEJO, YALI WANG,
     SIMON WEBB, AARON WEST, THERESA L. WINDUS, MARTA WLOCH,
     PENG XU, KIYOSHI YAGI, SUSUMU YANAGISAWA, YANG YANG,
     SOOHAENG YOO, TAKESHI YOSHIKAWA, FEDERICO ZAHARIEV,
     TOBY ZENG

  WHO ARE SUPPORTED BY THEIR INSTITUTION/UNIVERSITY/COMPANY/GROUP
  (IN ALPHABETICAL ORDER):

     EP ANALYTICS, FACULTES UNIVERSITAIRES NOTRE-DAME DE LA PAIX,
     INSTITUTE FOR MOLECULAR SCIENCE, IOWA STATE UNIVERSITY,
     JACKSON STATE UNIVERSITY, JOHANNES KEPLER UNIVERSITY LINZ,
     KYUSHU UNIVERSITY, MICHIGAN STATE UNIVERSITY,
     MIE UNIVERSITY, MOSCOW STATE UNIVERSITY,
     N. COPERNICUS UNIVERSITY, NAGOYA UNIVERSITY,
     NANJING UNIVERSITY, NAT. INST. OF ADVANCED INDUSTRIAL
     SCIENCE AND TECHNOLOGY, NATIONAL INST. OF STANDARDS AND
     TECHNOLOGY, NESMEYANOV INSTITUTE OF ORGANOELEMENT COMPOUNDS
     OF RUSSIAN ACADEMY OF SCIENCES, OSAKA PREFECTURE UNIVERSITY,
     PENNSYLVANIA STATE UNIVERSITY, TOKYO INSTITUTE OF TECHNOLOGY,
     UNIVERSITY OF AARHUS, UNIVERSITY OF ALBERTA,
     UNIVERSITY OF CALIFORNIA AT SANTA BARBARA,
     UNIVERSITY OF COPENHAGEN, UNIVERSITY OF IOWA,
     UNIVERSITY OF MEMPHIS, UNIVERSITY OF MINNESOTA,
     UNIVERSITY OF NEBRASKA, UNIVERSITY OF NEW ENGLAND,
     UNIVERSITY OF NOTRE DAME, UNIVERSITY OF PISA,
     UNIVERSITY OF SILESIA, UNIVERSITY OF TOKYO,
     UNIVERSITY OF ZURICH, WASEDA UNIVERSITY, YALE UNIVERSITY

  GAMESS SOFTWARE MANAGEMENT TEAM FOR THIS RELEASE:
     MARK S. GORDON (TEAM LEAD),
     BRETT BODE (SENIOR ADVISOR),
     GIUSEPPE BARCA,
     COLLEEN BERTONI,
     KRISTOPHER KEIPERT (ADVISOR),
     SAROM S. LEANG (DEVELOPMENT LEAD),
     BUU PHAM,
     JORGE LUIS GALVEZ VALLEJO (WEBSITE ADMINISTRATOR),
     PENG XU

 EXECUTION OF GAMESS BEGUN 14:27:31 26-AUG-2025    

            ECHO OF THE FIRST FEW INPUT CARDS -
 INPUT CARD> $CONTRL ISPHER=1 $END                                                          
 INPUT CARD> $SYSTEM MWORDS=1000 $END                                                       
 INPUT CARD> $CONTRL MAXIT=200 SCFTYP=RHF NPRINT=3 RUNTYP=ENERGY $END                       
 INPUT CARD> $GUESS GUESS=HUCKEL $END                                                       
 INPUT CARD> $DATA                                                                          
 INPUT CARD> !   molecule                                                                   
 INPUT CARD> C1                                                                             
 INPUT CARD>HYDROGEN  1                                                                     
 INPUT CARD>S   2                                                                           
 INPUT CARD>1         0.5447178000E+01       0.1562849787E+00                               
 INPUT CARD>2         0.8245472400E+00       0.9046908767E+00                               
 INPUT CARD>S   1                                                                           
 INPUT CARD>1         0.1831915800E+00       1.0000000                                      
 INPUT CARD>                                                                                
 INPUT CARD>OXYGEN  8                                                                       
 INPUT CARD>S   6                                                                           
 INPUT CARD>1         0.5472270000E+04       0.1832168810E-02                               
 INPUT CARD>2         0.8178060000E+03       0.1410469084E-01                               
 INPUT CARD>3         0.1864460000E+03       0.6862615542E-01                               
 INPUT CARD>4         0.5302300000E+02       0.2293758510E+00                               
 INPUT CARD>5         0.1718000000E+02       0.4663986970E+00                               
 INPUT CARD>6         0.5911960000E+01       0.3641727634E+00                               
 INPUT CARD>L   2                                                                           
 INPUT CARD>1         0.7402940000E+01      -0.4044535832E+00       0.2445861070E+00        
 INPUT CARD>2         0.1576200000E+01       0.1221561761E+01       0.8539553735E+00        
 INPUT CARD>L   1                                                                           
 INPUT CARD>1         0.3736840000E+00       0.1000000000E+01       0.1000000000E+01        
 INPUT CARD>                                                                                
 INPUT CARD> $END                                                                           
 INPUT CARD> $FMO                                                                           
 INPUT CARD> NBODY=2, NFRAG=2, NLAYER=1                                                     
 INPUT CARD> indat(1)= 0                                                                    
 INPUT CARD>      1        -6    0                                                          
 INPUT CARD>      7        -12    0                                                         
 INPUT CARD>                                                                                
 INPUT CARD> frgnam(1)=  001,002,                                                           
 INPUT CARD>    icharg(1)=0,0,                                                              
 INPUT CARD> $END                                                                           
 INPUT CARD> $FMOPRP                                                                        
 INPUT CARD>   IPIEDA=3, NPRINT=8, MAXIT=200                                                
 INPUT CARD> $END                                                                           
 INPUT CARD> $FMOXYZ                                                                        
 INPUT CARD>O 8 1.39868 -1.34774 -0.12067                                                   
 INPUT CARD>H 1 1.65578 -2.01444 0.52783                                                    
 INPUT CARD>H 1 0.43717 -1.49494 -0.27167                                                   
 INPUT CARD>O 8 1.31918 1.31006 0.57663                                                     
 INPUT CARD>H 1 1.47618 0.36556 0.34493                                                     
 INPUT CARD>H 1 1.99548 1.80066 0.09423                                                     
 INPUT CARD>O 8 -1.39872 1.34796 0.12003                                                    
 INPUT CARD>H 1 -0.43722 1.49516 0.27143                                                    
 1000000000 WORDS OF MEMORY AVAILABLE


     RUN TITLE
     ---------
  !   molecule                                                                   

 THE POINT GROUP OF THE MOLECULE IS C1      
 THE ORDER OF THE PRINCIPAL AXIS IS     0

 ATOM   ATOMIC CHARGE
 HYDROGEN    1.0
 OXYGEN      8.0

     ATOMIC BASIS SET LIBRARY
     ----------------
 THE CONTRACTED PRIMITIVE FUNCTIONS HAVE BEEN UNNORMALIZED
 THE CONTRACTED BASIS FUNCTIONS ARE NOW NORMALIZED TO UNITY

  SHELL TYPE  PRIMITIVE        EXPONENT          CONTRACTION COEFFICIENT(S)

 HYDROGEN  

      1   S       1             5.4471780    0.156284978695
      1   S       2             0.8245472    0.904690876670

      2   S       3             0.1831916    1.000000000000

 OXYGEN    

      3   S       4          5472.2700000    0.001832168810
      3   S       5           817.8060000    0.014104690841
      3   S       6           186.4460000    0.068626155423
      3   S       7            53.0230000    0.229375851010
      3   S       8            17.1800000    0.466398697021
      3   S       9             5.9119600    0.364172763417

      4   L      10             7.4029400   -0.404453583354    0.244586106986
      4   L      11             1.5762000    1.221561761467    0.853955373453

      5   L      12             0.3736840    1.000000000000    1.000000000000

 TOTAL NUMBER OF BASIS SET SHELLS             =    5
 NUMBER OF CARTESIAN GAUSSIAN BASIS FUNCTIONS =   11

 SELECTED MURRAY-HANDY-LAMING RADIAL GRID

 LEGACY BECKE'S FUZZY CELL METHOD

 SELECTED ORIGINAL BECKE'S PARTITION FUNCTION

     $CONTRL OPTIONS
     ---------------
 SCFTYP=RHF          RUNTYP=ENERGY       EXETYP=RUN     
 MPLEVL=       0     CITYP =NONE         CCTYP =NONE         VBTYP =NONE    
 DFTTYP=NONE         TDDFT =NONE    
 MULT  =       1     ICHARG=       0     NZVAR =       0     COORD =UNIQUE  
 PP    =NONE         RELWFN=NONE         LOCAL =NONE         NUMGRD=       F
 ISPHER=       1     NOSYM =       0     MAXIT =     200     UNITS =ANGS    
 PLTORB=       F     MOLPLT=       F     AIMPAC=       F     FRIEND=        
 NPRINT=       3     IREST =       0     GEOM  =INPUT   
 NORMF =       0     NORMP =       0     ITOL  =      24     ICUT  =      12
 INTTYP=BEST         GRDTYP=BEST         QMTTOL= 1.0E-06

     $SYSTEM OPTIONS
     ---------------
  REPLICATED MEMORY=  1000000000 WORDS (ON EVERY NODE).
 DISTRIBUTED MEMDDI=           0 MILLION WORDS IN AGGREGATE,
 MEMDDI DISTRIBUTED OVER   1 PROCESSORS IS           0 WORDS/PROCESSOR.
 TOTAL MEMORY REQUESTED ON EACH PROCESSOR=  1000000000 WORDS.
 TIMLIM=      525600.00 MINUTES, OR     365.0 DAYS.
 PARALL= F  BALTYP=  DLB     KDIAG=    0  COREFL= F
 MXSEQ2=     300 MXSEQ3=     150  mem10=         0  mem22=         0

 Using Gaussians for PCM contribution to MEP, params: 0.10000E+01 0.10000E-07

          ----------------
          PROPERTIES INPUT
          ----------------

     MOMENTS            FIELD           POTENTIAL          DENSITY
 IEMOM =       1   IEFLD =       0   IEPOT =       0   IEDEN =       0
 WHERE =COMASS     WHERE =NUCLEI     WHERE =NUCLEI     WHERE =NUCLEI  
 OUTPUT=BOTH       OUTPUT=BOTH       OUTPUT=NONE       OUTPUT=BOTH    
 IEMINT=       0   IEFINT=       0                     IEDINT=       0
                                                       MORB  =       0
          EXTRAPOLATION IN EFFECT
          SOSCF IN EFFECT
 ORBITAL PRINTING OPTION: NPREO=     1 32767     2     1

     -------------------------------
     INTEGRAL TRANSFORMATION OPTIONS
     -------------------------------
     NWORD  =            0
     CUTOFF = 1.0E-10     MPTRAN =       0
     DIRTRF =       F     AOINTS =DUP     

          ----------------------
          INTEGRAL INPUT OPTIONS
          ----------------------
 NOPK  =       1 NORDER=       0 SCHWRZ=       T

 ..... DONE SETTING UP THE RUN .....
 STEP CPU TIME =     0.02 TOTAL CPU TIME =          0.0 (      0.0 MIN)
 TOTAL WALL CLOCK TIME=          0.0 SECONDS, CPU UTILIZATION IS    99.95%
 STEP CPU TIME =     0.00 TOTAL CPU TIME =          0.0 (      0.0 MIN)
 TOTAL WALL CLOCK TIME=          0.0 SECONDS, CPU UTILIZATION IS    99.95%

                    ----------------------
                    AO INTEGRAL TECHNOLOGY
                    ----------------------
     S,P,L SHELL ROTATED AXIS INTEGRALS, REPROGRAMMED BY
        KAZUYA ISHIMURA (IMS) AND JOSE SIERRA (SYNSTAR).
     S,P,D,L SHELL ROTATED AXIS INTEGRALS PROGRAMMED BY
        KAZUYA ISHIMURA (INSTITUTE FOR MOLECULAR SCIENCE).
     S,P,D,F,G SHELL TO TOTAL QUARTET ANGULAR MOMENTUM SUM 5,
        ERIC PROGRAM BY GRAHAM FLETCHER (ELORET AND NASA ADVANCED
        SUPERCOMPUTING DIVISION, AMES RESEARCH CENTER).
     S,P,D,F,G,L SHELL GENERAL RYS QUADRATURE PROGRAMMED BY
        MICHEL DUPUIS (PACIFIC NORTHWEST NATIONAL LABORATORY).
 Setting modorb=1 flag...
 Setting modorb=1 flag...
 STEP CPU TIME =     0.01 TOTAL CPU TIME =          0.0 (      0.0 MIN)
 TOTAL WALL CLOCK TIME=          0.0 SECONDS, CPU UTILIZATION IS    99.97%
 STEP CPU TIME =     0.00 TOTAL CPU TIME =          0.0 (      0.0 MIN)
 TOTAL WALL CLOCK TIME=          0.0 SECONDS, CPU UTILIZATION IS    99.97%
 Initialising fragments
 STEP CPU TIME =     0.00 TOTAL CPU TIME =          0.0 (      0.0 MIN)
 TOTAL WALL CLOCK TIME=          0.0 SECONDS, CPU UTILIZATION IS    99.97%
 STEP CPU TIME =     0.00 TOTAL CPU TIME =          0.0 (      0.0 MIN)
 TOTAL WALL CLOCK TIME=          0.0 SECONDS, CPU UTILIZATION IS    99.97%
 OPENING FILE SOCCDAT WITH       9 LOGICAL RECORDS OF     676 WORDS
 WITH A MAXIMUM OF           9 PHYSICAL RECORDS OF    2048 WORDS

 -----------------------------------------------------------------------
                  The Fragment Molecular Orbital (FMO) method.
                         Version 5.4
          coded by D. G. Fedorov under the guidance of K. Kitaura,
    with contributions from N. Asada, K. R. Brorsen, M. Chiba, C. Choi,
 D. S. Kaliakin, N. Minezawa, V. Mironov, T. Nagata, H. Nakata, Y. Nishimoto,
               S. R. Pruitt, C. Steinmann, and F. Zahariev.
       All publications using the FMO method in GAMESS should cite:
          D. G. Fedorov, K. Kitaura, J. Chem. Phys. 120, 6832 (2004).
 -----------------------------------------------------------------------

 Used memory (words):        28053
 Number of fragments:      2
 Number of layers:         1
 N-body FMO method:        2
 Number of atoms:         12
 Total charge:             0
 Total spin multiplicity:  1
 Number of basis sets:     1
 Number of LMO types:      0
 Number of boundaries:     0
 MonomerSCF convergence:   0.1000E-06
 Max monomerSCF iter:    200
 MonomerSCF criterion:     internal
 Max AOs per n-mer:       26       52
 Layer electron correlation information
     nbody=  2
    SCFTYP=RHF     
    MPLEVL=  0
    DFTTYP=NONE    
     CITYP=NONE    
     CCTYP=NONE    
     TDDFT=NONE    
 FMO method: FMO2-RHF

 FMO approximations.
    Using point charge approximation for the 2e ESP with the VdW factor   2.00
    Using ES-dimer approximation with the VdW factor   2.00
    The uniform distances will be used in ESPs.
    Van der Waals radii in Angstrom are:
       R(O  )=  1.4000
       R(H  )=  1.2000

 FMO initial guess options.
    Using monomer density to form dimer guess.

 FMO extensions.

 FMO automation options.

 FMO SCF converger options.
    SCF convergers:
     65     65     65     65     65     65     65     65     65     65
    Fragment orbitals will be exchanged.

 FMO parallelisation options.
    Smart parallel load balancing: large jobs first.
    ESPs will be shell parallelised.
    Broadcast all fragments at once.
    Do the fragment initialisation in the reverse order.

 FMO properties and print-out level.
    Interfragment CT method:    4
    Voluminous print-out level.
    Atomic charges will be printed.

 Array dimensions maxbnd,maxknd,maxcbs,maxcao,maxbbd are:
                       5     10      9      5      9

 --------------------------------------------------




 Starting layer 1 nbody=2
 SCFTYP=RHF     MPLEVL=0 DFTTYP=NONE     CITYP=NONE    CCTYP=NONE    TDDFT=NONE    



 Running initial guess for monomer       2


          ********************
          1 ELECTRON INTEGRALS
          ********************
 OVERLAP MATRIX

                      1          2          3          4          5

    1  O  1  S    1.000000
    2  O  1  S    0.256260   1.000000
    3  O  1  X    0.000000   0.000000   1.000000
    4  O  1  Y    0.000000   0.000000   0.000000   1.000000
    5  O  1  Z    0.000000  -0.000000   0.000000   0.000000   1.000000
    6  O  1  S    0.208361   0.740016   0.000000   0.000000   0.000000
    7  O  1  X    0.000000   0.000000   0.498767   0.000000   0.000000
    8  O  1  Y    0.000000   0.000000   0.000000   0.498767   0.000000
    9  O  1  Z    0.000000  -0.000000   0.000000   0.000000   0.498767
   10  H  2  S    0.023497   0.146155   0.185164   0.028348   0.029156
   11  H  2  S    0.067801   0.293419   0.115099   0.017621   0.018124
   12  H  3  S    0.026022   0.157151  -0.053399   0.138637  -0.135078
   13  H  3  S    0.069474   0.299965  -0.031413   0.081556  -0.079463
   14  O  4  S    0.000000   0.000000   0.000000  -0.000000  -0.000000
   15  O  4  S    0.000000   0.000000   0.000000  -0.000000  -0.000000
   16  O  4  X   -0.000000  -0.000000   0.000000   0.000000   0.000000
   17  O  4  Y    0.000000   0.000000   0.000000  -0.000000  -0.000000
   18  O  4  Z    0.000000   0.000000   0.000000  -0.000000  -0.000000
   19  O  4  S    0.000014   0.000238   0.000013  -0.000422  -0.000110
   20  O  4  X   -0.000002  -0.000035   0.000136   0.000063   0.000016
   21  O  4  Y    0.000079   0.001177   0.000063  -0.001962  -0.000550
   22  O  4  Z    0.000021   0.000308   0.000016  -0.000550  -0.000007
   23  H  5  S    0.000069   0.002241  -0.000204  -0.004496  -0.001219
   24  H  5  S    0.016692   0.082441  -0.002562  -0.056571  -0.015341
   25  H  6  S    0.000000   0.000000  -0.000000  -0.000000  -0.000000
   26  H  6  S    0.000171   0.001286  -0.000293  -0.001547  -0.000105

                      6          7          8          9         10

    6  O  1  S    1.000000
    7  O  1  X    0.000000   1.000000
    8  O  1  Y    0.000000   0.000000   1.000000
    9  O  1  Z    0.000000   0.000000   0.000000   1.000000
   10  H  2  S    0.347355   0.539779   0.082637   0.084995   1.000000
   11  H  2  S    0.595269   0.435001   0.066596   0.068496   0.645898
   12  H  3  S    0.359924  -0.149296   0.387610  -0.377661   0.024463
   13  H  3  S    0.605302  -0.118048   0.306482  -0.298615   0.177422
   14  O  4  S    0.000014   0.000002  -0.000079  -0.000021   0.000000
   15  O  4  S    0.000238   0.000035  -0.001177  -0.000308   0.000000
   16  O  4  X   -0.000013   0.000136   0.000063   0.000016   0.000000
   17  O  4  Y    0.000422   0.000063  -0.001962  -0.000550   0.000000
   18  O  4  Z    0.000110   0.000016  -0.000550  -0.000007   0.000000
   19  O  4  S    0.006462   0.000592  -0.019843  -0.005196   0.000149
   20  O  4  X   -0.000592   0.006408   0.001818   0.000476   0.000209
   21  O  4  Y    0.019843   0.001818  -0.054467  -0.015956   0.000665
   22  O  4  Z    0.005196   0.000476  -0.015956   0.002284   0.000201
   23  H  5  S    0.045419  -0.005650  -0.124757  -0.033832   0.000584
   24  H  5  S    0.227678  -0.013428  -0.296524  -0.080412   0.045441
   25  H  6  S    0.000062  -0.000059  -0.000312  -0.000021   0.000000
   26  H  6  S    0.009838  -0.004462  -0.023542  -0.001593   0.000471

                     11         12         13         14         15

   11  H  2  S    1.000000
   12  H  3  S    0.177422   1.000000
   13  H  3  S    0.457014   0.645898   1.000000
   14  O  4  S    0.000314   0.000000   0.000099   1.000000
   15  O  4  S    0.002235   0.000000   0.000784   0.256260   1.000000
   16  O  4  X    0.000757  -0.000000  -0.000100  -0.000000   0.000000
   17  O  4  Y    0.002407   0.000000   0.000991  -0.000000   0.000000
   18  O  4  Z    0.000727   0.000000   0.000014  -0.000000   0.000000
   19  O  4  S    0.014921   0.000028   0.006771   0.208361   0.740016
   20  O  4  X    0.010005  -0.000015  -0.001729   0.000000   0.000000
   21  O  4  Y    0.031813   0.000151   0.017108   0.000000   0.000000
   22  O  4  Z    0.009611   0.000002   0.000242   0.000000   0.000000
   23  H  5  S    0.045441   0.000178   0.029420   0.023423   0.145830
   24  H  5  S    0.199903   0.029420   0.153495   0.067750   0.293220
   25  H  6  S    0.000471   0.000000   0.000218   0.026025   0.157165
   26  H  6  S    0.012393   0.000218   0.007749   0.069476   0.299973

                     16         17         18         19         20

   16  O  4  X    1.000000
   17  O  4  Y    0.000000   1.000000
   18  O  4  Z    0.000000   0.000000   1.000000
   19  O  4  S   -0.000000  -0.000000   0.000000   1.000000
   20  O  4  X    0.498767   0.000000   0.000000   0.000000   1.000000
   21  O  4  Y    0.000000   0.498767   0.000000   0.000000   0.000000
   22  O  4  Z    0.000000   0.000000   0.498767   0.000000   0.000000
   23  H  5  S   -0.030144   0.181458   0.044457   0.346975  -0.087986
   24  H  5  S   -0.018769   0.112986   0.027681   0.594962  -0.070948
   25  H  6  S   -0.140689  -0.102083   0.100543   0.359939  -0.393328
   26  H  6  S   -0.082758  -0.060049   0.059143   0.605314  -0.310997

                     21         22         23         24         25

   21  O  4  Y    1.000000
   22  O  4  Z    0.000000   1.000000
   23  H  5  S    0.529653   0.129764   1.000000
   24  H  5  S    0.427090   0.104636   0.645898   1.000000
   25  H  6  S   -0.285396   0.281090   0.024531   0.177603   1.000000
   26  H  6  S   -0.225657   0.222252   0.177603   0.457296   0.645898

                     26

   26  H  6  S    1.000000
 BARE NUCLEUS HAMILTONIAN INTEGRALS (H=T+V)

                      1          2          3          4          5

    1  O  1  S  -35.034327
    2  O  1  S   -8.599310 -12.160023
    3  O  1  X   -0.016319  -0.085858 -10.727628
    4  O  1  Y    0.011955   0.062912   0.002818 -10.729274
    5  O  1  Z    0.020852   0.109704  -0.020483   0.020219 -10.698014
    6  O  1  S   -7.127291  -9.538886  -0.082107   0.060773   0.104934
    7  O  1  X   -0.002871  -0.052026  -5.223629   0.002564  -0.018949
    8  O  1  Y    0.002104   0.038547   0.002564  -5.225603   0.018490
    9  O  1  Z    0.003669   0.066492  -0.018949   0.018490  -5.196103
   10  H  2  S   -0.810890  -1.885689  -2.038131  -0.299227  -0.307673
   11  H  2  S   -2.325023  -3.780659  -1.277650  -0.162782  -0.154573
   12  H  3  S   -0.897060  -2.016442   0.572145  -1.499255   1.482739
   13  H  3  S   -2.382012  -3.857807   0.307004  -0.855502   0.900981
   14  O  4  S    0.000000  -0.000000  -0.000000   0.000000   0.000000
   15  O  4  S   -0.000000  -0.000000  -0.000000   0.000000   0.000000
   16  O  4  X    0.000000   0.000000  -0.000000  -0.000000  -0.000000
   17  O  4  Y   -0.000000  -0.000000  -0.000000   0.000001   0.000000
   18  O  4  Z   -0.000000  -0.000000  -0.000000   0.000000   0.000000
   19  O  4  S   -0.000479  -0.003464  -0.000178   0.005560   0.001465
   20  O  4  X    0.000083   0.000490  -0.001765  -0.000789  -0.000210
   21  O  4  Y   -0.002792  -0.016676  -0.000862   0.024992   0.007059
   22  O  4  Z   -0.000731  -0.004361  -0.000227   0.007005   0.000060
   23  H  5  S   -0.002508  -0.033549   0.002618   0.060371   0.016423
   24  H  5  S   -0.573538  -1.068983   0.019355   0.629446   0.178143
   25  H  6  S   -0.000000  -0.000000   0.000000   0.000000   0.000000
   26  H  6  S   -0.005919  -0.017133   0.003288   0.018197   0.001374

                      6          7          8          9         10

    6  O  1  S  -10.305461
    7  O  1  X   -0.139680  -7.287143
    8  O  1  Y    0.156122   0.007083  -7.353740
    9  O  1  Z    0.187976  -0.062579   0.042988  -7.195571
   10  H  2  S   -3.123463  -4.021382  -0.576934  -0.607068  -6.577641
   11  H  2  S   -5.413923  -3.042475  -0.308737  -0.350834  -4.607080
   12  H  3  S   -3.221503   1.081988  -2.819943   2.797020  -0.285685
   13  H  3  S   -5.471978   0.720460  -1.949177   2.131268  -1.496146
   14  O  4  S   -0.000478  -0.000083   0.002788   0.000730  -0.000000
   15  O  4  S   -0.003560  -0.000487   0.017099   0.004474  -0.000000
   16  O  4  X    0.000207  -0.001789  -0.000992  -0.000258  -0.000000
   17  O  4  Y   -0.005800  -0.000783   0.026037   0.007291  -0.000001
   18  O  4  Z   -0.001525  -0.000204   0.007328   0.000105  -0.000000
   19  O  4  S   -0.059082  -0.004805   0.175080   0.045899  -0.001685
   20  O  4  X    0.005577  -0.050656  -0.016640  -0.004367  -0.002132
   21  O  4  Y   -0.172924  -0.014074   0.448952   0.131179  -0.007281
   22  O  4  Z   -0.045236  -0.003686   0.130878  -0.016639  -0.002179
   23  H  5  S   -0.395441   0.042864   1.021724   0.276893  -0.007583
   24  H  5  S   -2.014083   0.068011   2.210846   0.614447  -0.402167
   25  H  6  S   -0.000774   0.000649   0.003747   0.000310  -0.000000
   26  H  6  S   -0.083245   0.031323   0.185099   0.016174  -0.004748

                     11         12         13         14         15

   11  H  2  S   -6.334026
   12  H  3  S   -1.494318  -6.522952
   13  H  3  S   -3.394361  -4.568126  -6.238553
   14  O  4  S   -0.010824  -0.000000  -0.003430 -34.902761
   15  O  4  S   -0.029858  -0.000000  -0.010635  -8.565595 -12.028457
   16  O  4  X   -0.008396   0.000000   0.001285   0.020950   0.110217
   17  O  4  Y   -0.028902  -0.000000  -0.012126  -0.037415  -0.196857
   18  O  4  Z   -0.008795  -0.000000  -0.000339  -0.024421  -0.128483
   19  O  4  S   -0.126822  -0.000374  -0.058552  -7.099878  -9.441526
   20  O  4  X   -0.068455   0.000181   0.013532   0.003686   0.066706
   21  O  4  Y   -0.249048  -0.001916  -0.137328  -0.006583  -0.119609
   22  O  4  Z   -0.074458  -0.000067  -0.005369  -0.004297  -0.077865
   23  H  5  S   -0.378797  -0.002577  -0.246052  -0.807016  -1.912007
   24  H  5  S   -1.507681  -0.275756  -1.184309  -2.315509  -3.767019
   25  H  6  S   -0.005080  -0.000000  -0.002310  -0.894076  -2.003698
   26  H  6  S   -0.096222  -0.002410  -0.059939  -2.373154  -3.823313

                     16         17         18         19         20

   16  O  4  X  -10.569923
   17  O  4  Y   -0.013366 -10.632579
   18  O  4  Z    0.024710  -0.003220 -10.557718
   19  O  4  S    0.105286  -0.188718  -0.122884 -10.173957
   20  O  4  X   -5.133710  -0.012297   0.022825   0.175998  -7.076434
   21  O  4  Y   -0.012297  -5.192293  -0.003156  -0.364338  -0.038407
   22  O  4  Z    0.022825  -0.003156  -5.122478  -0.216843   0.074481
   23  H  5  S    0.346731  -2.057034  -0.511753  -3.331005   0.723130
   24  H  5  S    0.243023  -1.302410  -0.348686  -5.509730   0.590868
   25  H  6  S    1.531431   1.077896  -1.100628  -3.204139   2.890402
   26  H  6  S    0.927025   0.564687  -0.682047  -5.419131   2.176484

                     21         22         23         24         25

   21  O  4  Y   -7.322934
   22  O  4  Z   -0.024333  -7.043006
   23  H  5  S   -4.379865  -1.086201  -7.650654
   24  H  5  S   -3.342458  -0.887995  -5.300237  -7.398570
   25  H  6  S    2.030395  -2.078713  -0.293912  -1.506197  -6.497770
   26  H  6  S    1.263283  -1.616077  -1.628446  -3.537650  -4.551856

                     26

   26  H  6  S   -6.213330
 KINETIC ENERGY INTEGRALS

                      1          2          3          4          5

    1  O  1  S   29.611820
    2  O  1  S   -2.598459   2.787882
    3  O  1  X    0.000000   0.000000   5.351306
    4  O  1  Y   -0.000000   0.000000   0.000000   5.351306
    5  O  1  Z   -0.000000  -0.000000  -0.000000   0.000000   5.351306
    6  O  1  S    0.223837   0.652395   0.000000   0.000000   0.000000
    7  O  1  X   -0.000000  -0.000000   0.761164   0.000000   0.000000
    8  O  1  Y   -0.000000   0.000000   0.000000   0.761164   0.000000
    9  O  1  Z    0.000000  -0.000000   0.000000   0.000000   0.761164
   10  H  2  S   -0.038986  -0.056880   0.093658   0.014338   0.014748
   11  H  2  S    0.021382   0.089426   0.073198   0.011206   0.011526
   12  H  3  S   -0.039257  -0.049728  -0.031221   0.081057  -0.078976
   13  H  3  S    0.022517   0.093565  -0.020209   0.052469  -0.051122
   14  O  4  S    0.000000  -0.000000  -0.000000   0.000000   0.000000
   15  O  4  S   -0.000000  -0.000000  -0.000000   0.000000   0.000000
   16  O  4  X    0.000000   0.000000  -0.000000  -0.000000  -0.000000
   17  O  4  Y   -0.000000  -0.000000  -0.000000   0.000000   0.000000
   18  O  4  Z   -0.000000  -0.000000  -0.000000   0.000000   0.000000
   19  O  4  S   -0.000078  -0.000945  -0.000043   0.001450   0.000380
   20  O  4  X    0.000012   0.000118  -0.000467  -0.000178  -0.000047
   21  O  4  Y   -0.000403  -0.003944  -0.000178   0.005482   0.001559
   22  O  4  Z   -0.000106  -0.001033  -0.000047   0.001559  -0.000064
   23  H  5  S   -0.000703  -0.010975   0.000805   0.017769   0.004819
   24  H  5  S   -0.003125  -0.008864  -0.000541  -0.011956  -0.003242
   25  H  6  S   -0.000000  -0.000000   0.000000   0.000000   0.000000
   26  H  6  S   -0.000313  -0.001888   0.000344   0.001814   0.000123

                      6          7          8          9         10

    6  O  1  S    0.560526
    7  O  1  X    0.000000   0.934210
    8  O  1  Y   -0.000000   0.000000   0.934210
    9  O  1  Z   -0.000000   0.000000   0.000000   0.934210
   10  H  2  S    0.107216   0.449436   0.068806   0.070769   1.549405
   11  H  2  S    0.157267   0.221873   0.033968   0.034937   0.293151
   12  H  3  S    0.117802  -0.127143   0.330095  -0.321622  -0.042541
   13  H  3  S    0.162405  -0.060696   0.157581  -0.153536   0.011113
   14  O  4  S   -0.000078  -0.000012   0.000403   0.000106  -0.000000
   15  O  4  S   -0.000945  -0.000118   0.003944   0.001033  -0.000000
   16  O  4  X    0.000043  -0.000467  -0.000178  -0.000047  -0.000000
   17  O  4  Y   -0.001450  -0.000178   0.005482   0.001559  -0.000001
   18  O  4  Z   -0.000380  -0.000047   0.001559  -0.000064  -0.000000
   19  O  4  S   -0.008553  -0.000562   0.018847   0.004936  -0.000545
   20  O  4  X    0.000562  -0.006107  -0.001047  -0.000274  -0.000659
   21  O  4  Y   -0.018847  -0.001047   0.028966   0.009193  -0.002094
   22  O  4  Z   -0.004936  -0.000274   0.009193  -0.003731  -0.000633
   23  H  5  S   -0.033737   0.001303   0.028779   0.007804  -0.002773
   24  H  5  S    0.006354  -0.003676  -0.081178  -0.022014  -0.015795
   25  H  6  S   -0.000256   0.000213   0.001121   0.000076  -0.000000
   26  H  6  S   -0.007324   0.002225   0.011739   0.000794  -0.000808

                     11         12         13         14         15

   11  H  2  S    0.274787
   12  H  3  S    0.011113   1.549405
   13  H  3  S    0.060025   0.293151   0.274787
   14  O  4  S   -0.000506  -0.000000  -0.000201  29.611820
   15  O  4  S   -0.002876  -0.000000  -0.001278  -2.598459   2.787882
   16  O  4  X   -0.000749   0.000000   0.000134   0.000000   0.000000
   17  O  4  Y   -0.002381  -0.000000  -0.001324   0.000000   0.000000
   18  O  4  Z   -0.000719  -0.000000  -0.000019   0.000000   0.000000
   19  O  4  S   -0.009581  -0.000128  -0.005663   0.223837   0.652395
   20  O  4  X   -0.003964   0.000061   0.001021   0.000000  -0.000000
   21  O  4  Y   -0.012606  -0.000602  -0.010102   0.000000  -0.000000
   22  O  4  Z   -0.003808  -0.000009  -0.000143  -0.000000  -0.000000
   23  H  5  S   -0.015795  -0.001017  -0.014068  -0.038973  -0.057080
   24  H  5  S   -0.004025  -0.014068  -0.010519   0.021348   0.089301
   25  H  6  S   -0.000808  -0.000000  -0.000424  -0.039257  -0.049719
   26  H  6  S   -0.006563  -0.000424  -0.004770   0.022519   0.093570

                     16         17         18         19         20

   16  O  4  X    5.351306
   17  O  4  Y    0.000000   5.351306
   18  O  4  Z    0.000000   0.000000   5.351306
   19  O  4  S   -0.000000  -0.000000   0.000000   0.560526
   20  O  4  X    0.761164  -0.000000  -0.000000   0.000000   0.934210
   21  O  4  Y   -0.000000   0.761164  -0.000000  -0.000000   0.000000
   22  O  4  Z   -0.000000  -0.000000   0.761164   0.000000   0.000000
   23  H  5  S   -0.015174   0.091344   0.022379   0.106900  -0.073208
   24  H  5  S   -0.011932   0.071828   0.017598   0.157111  -0.036178
   25  H  6  S   -0.082270  -0.059694   0.058794   0.117815  -0.334974
   26  H  6  S   -0.053243  -0.038633   0.038050   0.162412  -0.159904

                     21         22         23         24         25

   21  O  4  Y    0.934210
   22  O  4  Z    0.000000   0.934210
   23  H  5  S    0.440695   0.107969   1.549405
   24  H  5  S    0.217784   0.053357   0.293151   0.274787
   25  H  6  S   -0.243054   0.239387  -0.042606   0.011178   1.549405
   26  H  6  S   -0.116025   0.114275   0.011178   0.060113   0.293151

                     26

   26  H  6  S    0.274787
 ...... END OF ONE-ELECTRON INTEGRALS ......
 STEP CPU TIME =     0.01 TOTAL CPU TIME =          0.0 (      0.0 MIN)
 TOTAL WALL CLOCK TIME=          0.0 SECONDS, CPU UTILIZATION IS    99.97%

          -------------
          GUESS OPTIONS
          -------------
          GUESS =HUCKEL            NORB  =       0          NORDER=       0
          MIX   =       F          PRTMO =       F          PUNMO =       F
          TOLZ  = 1.0E-08          TOLE  = 1.0E-05
          SYMDEN=       F          PURIFY=       F

 INITIAL GUESS ORBITALS GENERATED BY HUCKEL   ROUTINE.
 HUCKEL GUESS REQUIRES     10014 WORDS.

 SYMMETRIES FOR INITIAL GUESS ORBITALS FOLLOW.   BOTH SET(S).
    10 ORBITALS ARE OCCUPIED (    2 CORE ORBITALS).
     3=A        4=A        5=A        6=A        7=A        8=A        9=A   
    10=A       11=A       12=A       13=A       14=A       15=A       16=A   
    17=A       18=A       19=A       20=A   
 ...... END OF INITIAL ORBITAL SELECTION ......
 STEP CPU TIME =     0.00 TOTAL CPU TIME =          0.0 (      0.0 MIN)
 TOTAL WALL CLOCK TIME=          0.0 SECONDS, CPU UTILIZATION IS    99.98%

 Running initial guess for monomer       1


          ********************
          1 ELECTRON INTEGRALS
          ********************
 OVERLAP MATRIX

                      1          2          3          4          5

    1  O  1  S    1.000000
    2  O  1  S    0.256260   1.000000
    3  O  1  X    0.000000   0.000000   1.000000
    4  O  1  Y   -0.000000  -0.000000   0.000000   1.000000
    5  O  1  Z   -0.000000  -0.000000  -0.000000   0.000000   1.000000
    6  O  1  S    0.208361   0.740016   0.000000   0.000000   0.000000
    7  O  1  X   -0.000000   0.000000   0.498767   0.000000   0.000000
    8  O  1  Y    0.000000   0.000000   0.000000   0.498767   0.000000
    9  O  1  Z    0.000000   0.000000   0.000000   0.000000   0.498767
   10  H  2  S    0.026011   0.157108   0.053487  -0.138700   0.134914
   11  H  2  S    0.069468   0.299940   0.031472  -0.081611   0.079383
   12  H  3  S    0.023503   0.146184  -0.185204  -0.028353  -0.029085
   13  H  3  S    0.067806   0.293436  -0.115107  -0.017622  -0.018077
   14  O  4  S    0.000000   0.000000  -0.000000   0.000000   0.000000
   15  O  4  S    0.000000   0.000000  -0.000000   0.000000   0.000000
   16  O  4  X    0.000000   0.000000   0.000000   0.000000   0.000000
   17  O  4  Y   -0.000000  -0.000000   0.000000  -0.000000  -0.000000
   18  O  4  Z   -0.000000  -0.000000   0.000000  -0.000000  -0.000000
   19  O  4  S    0.000014   0.000238  -0.000013   0.000422   0.000111
   20  O  4  X    0.000002   0.000035   0.000136   0.000063   0.000016
   21  O  4  Y   -0.000079  -0.001176   0.000063  -0.001962  -0.000551
   22  O  4  Z   -0.000021  -0.000309   0.000016  -0.000551  -0.000007
   23  H  5  S    0.000069   0.002242   0.000203   0.004497   0.001222
   24  H  5  S    0.016694   0.082450   0.002559   0.056568   0.015373
   25  H  6  S    0.000000   0.000000   0.000000   0.000000   0.000000
   26  H  6  S    0.000171   0.001287   0.000293   0.001547   0.000106

                      6          7          8          9         10

    6  O  1  S    1.000000
    7  O  1  X    0.000000   1.000000
    8  O  1  Y    0.000000   0.000000   1.000000
    9  O  1  Z   -0.000000   0.000000   0.000000   1.000000
   10  H  2  S    0.359876   0.149566  -0.387848   0.377260   1.000000
   11  H  2  S    0.605263   0.118270  -0.306693   0.298320   0.645898
   12  H  3  S    0.347388  -0.539836  -0.082645  -0.084778   0.024457
   13  H  3  S    0.595295  -0.435025  -0.066599  -0.068318   0.177407
   14  O  4  S    0.000014  -0.000002   0.000079   0.000021   0.000000
   15  O  4  S    0.000238  -0.000035   0.001176   0.000309   0.000000
   16  O  4  X    0.000013   0.000136   0.000063   0.000016   0.000000
   17  O  4  Y   -0.000422   0.000063  -0.001962  -0.000551  -0.000000
   18  O  4  Z   -0.000111   0.000016  -0.000551  -0.000007  -0.000000
   19  O  4  S    0.006462  -0.000593   0.019839   0.005205   0.000028
   20  O  4  X    0.000593   0.006407   0.001822   0.000478   0.000015
   21  O  4  Y   -0.019839   0.001822  -0.054450  -0.015981  -0.000150
   22  O  4  Z   -0.005205   0.000478  -0.015981   0.002269  -0.000002
   23  H  5  S    0.045428   0.005643   0.124759   0.033904   0.000178
   24  H  5  S    0.227699   0.013412   0.296499   0.080575   0.029410
   25  H  6  S    0.000062   0.000059   0.000312   0.000021   0.000000
   26  H  6  S    0.009839   0.004463   0.023544   0.001607   0.000218

                     11         12         13         14         15

   11  H  2  S    1.000000
   12  H  3  S    0.177407   1.000000
   13  H  3  S    0.456990   0.645898   1.000000
   14  O  4  S    0.000099   0.000000   0.000314   1.000000
   15  O  4  S    0.000783   0.000000   0.002236   0.256260   1.000000
   16  O  4  X    0.000100  -0.000000  -0.000757   0.000000   0.000000
   17  O  4  Y   -0.000990  -0.000000  -0.002408  -0.000000  -0.000000
   18  O  4  Z   -0.000015  -0.000000  -0.000728  -0.000000  -0.000000
   19  O  4  S    0.006766   0.000149   0.014926   0.208361   0.740016
   20  O  4  X    0.001731  -0.000209  -0.010005   0.000000   0.000000
   21  O  4  Y   -0.017095  -0.000665  -0.031819  -0.000000  -0.000000
   22  O  4  Z   -0.000251  -0.000201  -0.009623  -0.000000   0.000000
   23  H  5  S    0.029410   0.000585   0.045458   0.023412   0.145782
   24  H  5  S    0.153464   0.045458   0.199948   0.067743   0.293191
   25  H  6  S    0.000218   0.000000   0.000471   0.026037   0.157216
   26  H  6  S    0.007750   0.000471   0.012393   0.069484   0.300002

                     16         17         18         19         20

   16  O  4  X    1.000000
   17  O  4  Y    0.000000   1.000000
   18  O  4  Z    0.000000   0.000000   1.000000
   19  O  4  S    0.000000  -0.000000   0.000000   1.000000
   20  O  4  X    0.498767   0.000000   0.000000   0.000000   1.000000
   21  O  4  Y    0.000000   0.498767   0.000000   0.000000   0.000000
   22  O  4  Z    0.000000   0.000000   0.498767   0.000000   0.000000
   23  H  5  S    0.030152  -0.181395  -0.044499   0.346920   0.088028
   24  H  5  S    0.018779  -0.112975  -0.027714   0.594918   0.070988
   25  H  6  S    0.140801   0.102140  -0.100432   0.359997   0.393566
   26  H  6  S    0.082803   0.060067  -0.059063   0.605359   0.311158

                     21         22         23         24         25

   21  O  4  Y    1.000000
   22  O  4  Z    0.000000   1.000000
   23  H  5  S   -0.529568  -0.129911   1.000000
   24  H  5  S   -0.427059  -0.104764   0.645898   1.000000
   25  H  6  S    0.285500  -0.280728   0.024532   0.177604   1.000000
   26  H  6  S    0.225720  -0.221947   0.177604   0.457297   0.645898

                     26

   26  H  6  S    1.000000
 BARE NUCLEUS HAMILTONIAN INTEGRALS (H=T+V)

                      1          2          3          4          5

    1  O  1  S  -35.034313
    2  O  1  S   -8.599307 -12.160009
    3  O  1  X    0.016314   0.085831 -10.727648
    4  O  1  Y   -0.011942  -0.062844   0.002845 -10.729289
    5  O  1  Z   -0.020857  -0.109733  -0.020469   0.020191 -10.697939
    6  O  1  S   -7.127288  -9.538876   0.082081  -0.060708  -0.104962
    7  O  1  X    0.002871   0.052009  -5.223653   0.002589  -0.018935
    8  O  1  Y   -0.002101  -0.038506   0.002589  -5.225623   0.018464
    9  O  1  Z   -0.003670  -0.066510  -0.018935   0.018464  -5.196040
   10  H  2  S   -0.896712  -2.015870  -0.573110   1.499948  -1.480941
   11  H  2  S   -2.381790  -3.857470  -0.307649   0.856114  -0.900117
   12  H  3  S   -0.811110  -1.886058   2.038569   0.299295   0.306886
   13  H  3  S   -2.325173  -3.780882   1.277731   0.162817   0.154051
   14  O  4  S    0.000000  -0.000000   0.000000  -0.000000  -0.000000
   15  O  4  S   -0.000000  -0.000000   0.000000  -0.000000  -0.000000
   16  O  4  X   -0.000000  -0.000000  -0.000000  -0.000000  -0.000000
   17  O  4  Y    0.000000   0.000000  -0.000000   0.000001   0.000000
   18  O  4  Z    0.000000   0.000000  -0.000000   0.000000   0.000000
   19  O  4  S   -0.000479  -0.003464   0.000178  -0.005558  -0.001467
   20  O  4  X   -0.000083  -0.000491  -0.001765  -0.000791  -0.000210
   21  O  4  Y    0.002791   0.016672  -0.000864   0.024983   0.007070
   22  O  4  Z    0.000732   0.004368  -0.000228   0.007016   0.000066
   23  H  5  S   -0.002509  -0.033562  -0.002615  -0.060383  -0.016461
   24  H  5  S   -0.573613  -1.069110  -0.019323  -0.629406  -0.178494
   25  H  6  S   -0.000000  -0.000000  -0.000000  -0.000000  -0.000000
   26  H  6  S   -0.005920  -0.017137  -0.003290  -0.018199  -0.001385

                      6          7          8          9         10

    6  O  1  S  -10.305451
    7  O  1  X    0.139628  -7.287219
    8  O  1  Y   -0.155999   0.007176  -7.353813
    9  O  1  Z   -0.188061  -0.062534   0.042888  -7.195402
   10  H  2  S   -3.220920  -1.083948   2.821622  -2.793994  -6.522480
   11  H  2  S   -5.471558  -0.721996   1.950679  -2.129308  -4.567836
   12  H  3  S   -3.123841   4.021875   0.577011   0.605450  -0.285622
   13  H  3  S   -5.414192   3.042625   0.308817   0.349538  -1.494122
   14  O  4  S   -0.000478   0.000083  -0.002787  -0.000731  -0.000000
   15  O  4  S   -0.003560   0.000488  -0.017095  -0.004481  -0.000000
   16  O  4  X   -0.000207  -0.001789  -0.000993  -0.000259  -0.000000
   17  O  4  Y    0.005799  -0.000785   0.026028   0.007302   0.000000
   18  O  4  Z    0.001527  -0.000205   0.007339   0.000112   0.000000
   19  O  4  S   -0.059078   0.004818  -0.175048  -0.045975  -0.000373
   20  O  4  X   -0.005590  -0.050650  -0.016675  -0.004384  -0.000181
   21  O  4  Y    0.172892  -0.014108   0.448808   0.131382   0.001913
   22  O  4  Z    0.045310  -0.003702   0.131077  -0.016519   0.000068
   23  H  5  S   -0.395513  -0.042812  -1.021727  -0.277477  -0.002575
   24  H  5  S   -2.014270  -0.067891  -2.210648  -0.615655  -0.275664
   25  H  6  S   -0.000774  -0.000650  -0.003747  -0.000312  -0.000000
   26  H  6  S   -0.083257  -0.031331  -0.185111  -0.016286  -0.002410

                     11         12         13         14         15

   11  H  2  S   -6.238244
   12  H  3  S   -1.496071  -6.577918
   13  H  3  S   -3.394175  -4.607250  -6.334200
   14  O  4  S   -0.003425  -0.000000  -0.010828 -34.902746
   15  O  4  S   -0.010623  -0.000000  -0.029869  -8.565591 -12.028442
   16  O  4  X   -0.001286   0.000000   0.008397  -0.020966  -0.110300
   17  O  4  Y    0.012113   0.000001   0.028910   0.037399   0.196776
   18  O  4  Z    0.000345   0.000000   0.008806   0.024424   0.128501
   19  O  4  S   -0.058503  -0.001686  -0.126858  -7.099875  -9.441515
   20  O  4  X   -0.013549   0.002133   0.068457  -0.003689  -0.066756
   21  O  4  Y    0.137221   0.007284   0.249090   0.006581   0.119561
   22  O  4  Z    0.005437   0.002182   0.074552   0.004298   0.077876
   23  H  5  S   -0.245969  -0.007590  -0.378931  -0.806649  -1.911384
   24  H  5  S   -1.184089  -0.402317  -1.508013  -2.315255  -3.766642
   25  H  6  S   -0.002310  -0.000000  -0.005081  -0.894486  -2.004358
   26  H  6  S   -0.059937  -0.004748  -0.096225  -2.373414  -3.823694

                     16         17         18         19         20

   16  O  4  X  -10.569951
   17  O  4  Y   -0.013387 -10.632547
   18  O  4  Z    0.024702  -0.003254 -10.557675
   19  O  4  S   -0.105365   0.188642   0.122901 -10.173940
   20  O  4  X   -5.133742  -0.012317   0.022817  -0.176125  -7.076532
   21  O  4  Y   -0.012317  -5.192270  -0.003189   0.364225  -0.038450
   22  O  4  Z    0.022817  -0.003189  -5.122445   0.216890   0.074446
   23  H  5  S   -0.346835   2.056321   0.512229  -3.330373  -0.723471
   24  H  5  S   -0.243158   1.302244   0.349049  -5.509285  -0.591215
   25  H  6  S   -1.532647  -1.078504   1.099440  -3.204784  -2.892228
   26  H  6  S   -0.927545  -0.564906   0.681209  -5.419572  -2.177646

                     21         22         23         24         25

   21  O  4  Y   -7.322874
   22  O  4  Z   -0.024476  -7.042914
   23  H  5  S    4.379084   1.087410  -7.650363
   24  H  5  S    3.342135   0.888973  -5.300064  -7.398450
   25  H  6  S   -2.031208   2.076137  -0.293916  -1.506278  -6.498193
   26  H  6  S   -1.263744   1.614094  -1.628396  -3.537676  -4.552111

                     26

   26  H  6  S   -6.213560
 KINETIC ENERGY INTEGRALS

                      1          2          3          4          5

    1  O  1  S   29.611820
    2  O  1  S   -2.598459   2.787882
    3  O  1  X   -0.000000   0.000000   5.351306
    4  O  1  Y   -0.000000  -0.000000   0.000000   5.351306
    5  O  1  Z    0.000000  -0.000000   0.000000  -0.000000   5.351306
    6  O  1  S    0.223837   0.652395   0.000000   0.000000   0.000000
    7  O  1  X   -0.000000   0.000000   0.761164   0.000000   0.000000
    8  O  1  Y   -0.000000   0.000000   0.000000   0.761164   0.000000
    9  O  1  Z    0.000000   0.000000   0.000000   0.000000   0.761164
   10  H  2  S   -0.039257  -0.049758   0.031256  -0.081052   0.078839
   11  H  2  S    0.022513   0.093549   0.020246  -0.052502   0.051068
   12  H  3  S   -0.038987  -0.056862  -0.093717  -0.014347  -0.014718
   13  H  3  S    0.021385   0.089437  -0.073205  -0.011207  -0.011496
   14  O  4  S    0.000000  -0.000000   0.000000  -0.000000  -0.000000
   15  O  4  S   -0.000000  -0.000000   0.000000  -0.000000  -0.000000
   16  O  4  X   -0.000000  -0.000000  -0.000000  -0.000000  -0.000000
   17  O  4  Y    0.000000   0.000000  -0.000000   0.000000   0.000000
   18  O  4  Z    0.000000   0.000000  -0.000000   0.000000   0.000000
   19  O  4  S   -0.000078  -0.000944   0.000043  -0.001450  -0.000380
   20  O  4  X   -0.000012  -0.000118  -0.000467  -0.000178  -0.000047
   21  O  4  Y    0.000403   0.003943  -0.000178   0.005480   0.001562
   22  O  4  Z    0.000106   0.001035  -0.000047   0.001562  -0.000063
   23  H  5  S   -0.000704  -0.010979  -0.000804  -0.017771  -0.004829
   24  H  5  S   -0.003125  -0.008862   0.000541   0.011957   0.003249
   25  H  6  S   -0.000000  -0.000000  -0.000000  -0.000000  -0.000000
   26  H  6  S   -0.000313  -0.001889  -0.000344  -0.001814  -0.000124

                      6          7          8          9         10

    6  O  1  S    0.560526
    7  O  1  X    0.000000   0.934210
    8  O  1  Y   -0.000000   0.000000   0.934210
    9  O  1  Z   -0.000000  -0.000000   0.000000   0.934210
   10  H  2  S    0.117760   0.127362  -0.330270   0.321254   1.549405
   11  H  2  S    0.162386   0.060808  -0.157685   0.153380   0.293151
   12  H  3  S    0.107243  -0.449511  -0.068817  -0.070593  -0.042535
   13  H  3  S    0.157281  -0.221890  -0.033970  -0.034847   0.011107
   14  O  4  S   -0.000078   0.000012  -0.000403  -0.000106  -0.000000
   15  O  4  S   -0.000944   0.000118  -0.003943  -0.001035  -0.000000
   16  O  4  X   -0.000043  -0.000467  -0.000178  -0.000047  -0.000000
   17  O  4  Y    0.001450  -0.000178   0.005480   0.001562   0.000000
   18  O  4  Z    0.000380  -0.000047   0.001562  -0.000063   0.000000
   19  O  4  S   -0.008552   0.000564  -0.018844  -0.004944  -0.000128
   20  O  4  X   -0.000564  -0.006106  -0.001050  -0.000275  -0.000061
   21  O  4  Y    0.018844  -0.001050   0.028957   0.009208   0.000601
   22  O  4  Z    0.004944  -0.000275   0.009208  -0.003722   0.000009
   23  H  5  S   -0.033739  -0.001301  -0.028767  -0.007818  -0.001016
   24  H  5  S    0.006360   0.003672   0.081177   0.022060  -0.014066
   25  H  6  S   -0.000256  -0.000213  -0.001122  -0.000077  -0.000000
   26  H  6  S   -0.007325  -0.002225  -0.011739  -0.000801  -0.000424

                     11         12         13         14         15

   11  H  2  S    0.274787
   12  H  3  S    0.011107   1.549405
   13  H  3  S    0.060017   0.293151   0.274787
   14  O  4  S   -0.000201  -0.000000  -0.000506  29.611820
   15  O  4  S   -0.001277  -0.000000  -0.002876  -2.598459   2.787882
   16  O  4  X   -0.000134   0.000000   0.000749  -0.000000   0.000000
   17  O  4  Y    0.001323   0.000001   0.002382   0.000000   0.000000
   18  O  4  Z    0.000019   0.000000   0.000720   0.000000  -0.000000
   19  O  4  S   -0.005660  -0.000545  -0.009582   0.223837   0.652395
   20  O  4  X   -0.001022   0.000659   0.003964   0.000000   0.000000
   21  O  4  Y    0.010098   0.002095   0.012606   0.000000   0.000000
   22  O  4  Z    0.000148   0.000634   0.003812   0.000000   0.000000
   23  H  5  S   -0.014066  -0.002775  -0.015796  -0.038971  -0.057109
   24  H  5  S   -0.010522  -0.015796  -0.004018   0.021343   0.089283
   25  H  6  S   -0.000424  -0.000000  -0.000808  -0.039258  -0.049684
   26  H  6  S   -0.004770  -0.000808  -0.006562   0.022524   0.093589

                     16         17         18         19         20

   16  O  4  X    5.351306
   17  O  4  Y    0.000000   5.351306
   18  O  4  Z    0.000000  -0.000000   5.351306
   19  O  4  S    0.000000  -0.000000  -0.000000   0.560526
   20  O  4  X    0.761164   0.000000   0.000000   0.000000   0.934210
   21  O  4  Y    0.000000   0.761164   0.000000   0.000000   0.000000
   22  O  4  Z    0.000000   0.000000   0.761164   0.000000   0.000000
   23  H  5  S    0.015168  -0.091249  -0.022385   0.106854   0.073236
   24  H  5  S    0.011938  -0.071817  -0.017618   0.157088   0.036197
   25  H  6  S    0.082386   0.059764  -0.058765   0.117864   0.335210
   26  H  6  S    0.053275   0.038647  -0.038001   0.162435   0.159993

                     21         22         23         24         25

   21  O  4  Y    0.934210
   22  O  4  Z    0.000000   0.934210
   23  H  5  S   -0.440580  -0.108081   1.549405
   24  H  5  S   -0.217760  -0.053420   0.293151   0.274787
   25  H  6  S    0.243167  -0.239103  -0.042607   0.011179   1.549405
   26  H  6  S    0.116062  -0.114122   0.011179   0.060114   0.293151

                     26

   26  H  6  S    0.274787
 ...... END OF ONE-ELECTRON INTEGRALS ......
 STEP CPU TIME =     0.00 TOTAL CPU TIME =          0.0 (      0.0 MIN)
 TOTAL WALL CLOCK TIME=          0.0 SECONDS, CPU UTILIZATION IS    99.98%

          -------------
          GUESS OPTIONS
          -------------
          GUESS =HUCKEL            NORB  =       0          NORDER=       0
          MIX   =       F          PRTMO =       F          PUNMO =       F
          TOLZ  = 1.0E-08          TOLE  = 1.0E-05
          SYMDEN=       F          PURIFY=       F

 INITIAL GUESS ORBITALS GENERATED BY HUCKEL   ROUTINE.
 HUCKEL GUESS REQUIRES     10014 WORDS.

 SYMMETRIES FOR INITIAL GUESS ORBITALS FOLLOW.   BOTH SET(S).
    10 ORBITALS ARE OCCUPIED (    2 CORE ORBITALS).
     3=A        4=A        5=A        6=A        7=A        8=A        9=A   
    10=A       11=A       12=A       13=A       14=A       15=A       16=A   
    17=A       18=A       19=A       20=A   
 ...... END OF INITIAL ORBITAL SELECTION ......
 STEP CPU TIME =     0.00 TOTAL CPU TIME =          0.0 (      0.0 MIN)
 TOTAL WALL CLOCK TIME=          0.0 SECONDS, CPU UTILIZATION IS    99.98%

 There are           0 separated and       1 SCF (       0 of them correlated) dimers.
 Estimate of max dimer size:   52 AOs,   20 occ. MOs

 Fragment statistics

      I  NAME     Q NAT0 NATB NA  NAO LAY MUL SCFTYP        NOP     MOL    CONV
 ==============================================================================
      1 001       0    6   0   10   26 1  1 G RHF             0      -1      -1
      2 002       0    6   0   10   26 1  1 G RHF             0      -1      -1
 locfmo:
 nactfmo:                    0
 nmdfrg1:                    1                    1
 nmdfrg2:                    0                    0

 Close fragment pairs, distance relative to vdW radii


 RHF      monomer      2 corr= NONE       , L1=    26, L0=    26 ID=      1


 Resetting LABSIZ= 1 2


          ********************
          1 ELECTRON INTEGRALS
          ********************
 OVERLAP MATRIX

                      1          2          3          4          5

    1  O  1  S    1.000000
    2  O  1  S    0.256260   1.000000
    3  O  1  X    0.000000   0.000000   1.000000
    4  O  1  Y    0.000000   0.000000   0.000000   1.000000
    5  O  1  Z    0.000000  -0.000000   0.000000   0.000000   1.000000
    6  O  1  S    0.208361   0.740016   0.000000   0.000000   0.000000
    7  O  1  X    0.000000   0.000000   0.498767   0.000000   0.000000
    8  O  1  Y    0.000000   0.000000   0.000000   0.498767   0.000000
    9  O  1  Z    0.000000  -0.000000   0.000000   0.000000   0.498767
   10  H  2  S    0.023497   0.146155   0.185164   0.028348   0.029156
   11  H  2  S    0.067801   0.293419   0.115099   0.017621   0.018124
   12  H  3  S    0.026022   0.157151  -0.053399   0.138637  -0.135078
   13  H  3  S    0.069474   0.299965  -0.031413   0.081556  -0.079463
   14  O  4  S    0.000000   0.000000   0.000000  -0.000000  -0.000000
   15  O  4  S    0.000000   0.000000   0.000000  -0.000000  -0.000000
   16  O  4  X   -0.000000  -0.000000   0.000000   0.000000   0.000000
   17  O  4  Y    0.000000   0.000000   0.000000  -0.000000  -0.000000
   18  O  4  Z    0.000000   0.000000   0.000000  -0.000000  -0.000000
   19  O  4  S    0.000014   0.000238   0.000013  -0.000422  -0.000110
   20  O  4  X   -0.000002  -0.000035   0.000136   0.000063   0.000016
   21  O  4  Y    0.000079   0.001177   0.000063  -0.001962  -0.000550
   22  O  4  Z    0.000021   0.000308   0.000016  -0.000550  -0.000007
   23  H  5  S    0.000069   0.002241  -0.000204  -0.004496  -0.001219
   24  H  5  S    0.016692   0.082441  -0.002562  -0.056571  -0.015341
   25  H  6  S    0.000000   0.000000  -0.000000  -0.000000  -0.000000
   26  H  6  S    0.000171   0.001286  -0.000293  -0.001547  -0.000105

                      6          7          8          9         10

    6  O  1  S    1.000000
    7  O  1  X    0.000000   1.000000
    8  O  1  Y    0.000000   0.000000   1.000000
    9  O  1  Z    0.000000   0.000000   0.000000   1.000000
   10  H  2  S    0.347355   0.539779   0.082637   0.084995   1.000000
   11  H  2  S    0.595269   0.435001   0.066596   0.068496   0.645898
   12  H  3  S    0.359924  -0.149296   0.387610  -0.377661   0.024463
   13  H  3  S    0.605302  -0.118048   0.306482  -0.298615   0.177422
   14  O  4  S    0.000014   0.000002  -0.000079  -0.000021   0.000000
   15  O  4  S    0.000238   0.000035  -0.001177  -0.000308   0.000000
   16  O  4  X   -0.000013   0.000136   0.000063   0.000016   0.000000
   17  O  4  Y    0.000422   0.000063  -0.001962  -0.000550   0.000000
   18  O  4  Z    0.000110   0.000016  -0.000550  -0.000007   0.000000
   19  O  4  S    0.006462   0.000592  -0.019843  -0.005196   0.000149
   20  O  4  X   -0.000592   0.006408   0.001818   0.000476   0.000209
   21  O  4  Y    0.019843   0.001818  -0.054467  -0.015956   0.000665
   22  O  4  Z    0.005196   0.000476  -0.015956   0.002284   0.000201
   23  H  5  S    0.045419  -0.005650  -0.124757  -0.033832   0.000584
   24  H  5  S    0.227678  -0.013428  -0.296524  -0.080412   0.045441
   25  H  6  S    0.000062  -0.000059  -0.000312  -0.000021   0.000000
   26  H  6  S    0.009838  -0.004462  -0.023542  -0.001593   0.000471

                     11         12         13         14         15

   11  H  2  S    1.000000
   12  H  3  S    0.177422   1.000000
   13  H  3  S    0.457014   0.645898   1.000000
   14  O  4  S    0.000314   0.000000   0.000099   1.000000
   15  O  4  S    0.002235   0.000000   0.000784   0.256260   1.000000
   16  O  4  X    0.000757  -0.000000  -0.000100  -0.000000   0.000000
   17  O  4  Y    0.002407   0.000000   0.000991  -0.000000   0.000000
   18  O  4  Z    0.000727   0.000000   0.000014  -0.000000   0.000000
   19  O  4  S    0.014921   0.000028   0.006771   0.208361   0.740016
   20  O  4  X    0.010005  -0.000015  -0.001729   0.000000   0.000000
   21  O  4  Y    0.031813   0.000151   0.017108   0.000000   0.000000
   22  O  4  Z    0.009611   0.000002   0.000242   0.000000   0.000000
   23  H  5  S    0.045441   0.000178   0.029420   0.023423   0.145830
   24  H  5  S    0.199903   0.029420   0.153495   0.067750   0.293220
   25  H  6  S    0.000471   0.000000   0.000218   0.026025   0.157165
   26  H  6  S    0.012393   0.000218   0.007749   0.069476   0.299973

                     16         17         18         19         20

   16  O  4  X    1.000000
   17  O  4  Y    0.000000   1.000000
   18  O  4  Z    0.000000   0.000000   1.000000
   19  O  4  S   -0.000000  -0.000000   0.000000   1.000000
   20  O  4  X    0.498767   0.000000   0.000000   0.000000   1.000000
   21  O  4  Y    0.000000   0.498767   0.000000   0.000000   0.000000
   22  O  4  Z    0.000000   0.000000   0.498767   0.000000   0.000000
   23  H  5  S   -0.030144   0.181458   0.044457   0.346975  -0.087986
   24  H  5  S   -0.018769   0.112986   0.027681   0.594962  -0.070948
   25  H  6  S   -0.140689  -0.102083   0.100543   0.359939  -0.393328
   26  H  6  S   -0.082758  -0.060049   0.059143   0.605314  -0.310997

                     21         22         23         24         25

   21  O  4  Y    1.000000
   22  O  4  Z    0.000000   1.000000
   23  H  5  S    0.529653   0.129764   1.000000
   24  H  5  S    0.427090   0.104636   0.645898   1.000000
   25  H  6  S   -0.285396   0.281090   0.024531   0.177603   1.000000
   26  H  6  S   -0.225657   0.222252   0.177603   0.457296   0.645898

                     26

   26  H  6  S    1.000000
 BARE NUCLEUS HAMILTONIAN INTEGRALS (H=T+V)

                      1          2          3          4          5

    1  O  1  S  -35.034327
    2  O  1  S   -8.599310 -12.160023
    3  O  1  X   -0.016319  -0.085858 -10.727628
    4  O  1  Y    0.011955   0.062912   0.002818 -10.729274
    5  O  1  Z    0.020852   0.109704  -0.020483   0.020219 -10.698014
    6  O  1  S   -7.127291  -9.538886  -0.082107   0.060773   0.104934
    7  O  1  X   -0.002871  -0.052026  -5.223629   0.002564  -0.018949
    8  O  1  Y    0.002104   0.038547   0.002564  -5.225603   0.018490
    9  O  1  Z    0.003669   0.066492  -0.018949   0.018490  -5.196103
   10  H  2  S   -0.810890  -1.885689  -2.038131  -0.299227  -0.307673
   11  H  2  S   -2.325023  -3.780659  -1.277650  -0.162782  -0.154573
   12  H  3  S   -0.897060  -2.016442   0.572145  -1.499255   1.482739
   13  H  3  S   -2.382012  -3.857807   0.307004  -0.855502   0.900981
   14  O  4  S    0.000000  -0.000000  -0.000000   0.000000   0.000000
   15  O  4  S   -0.000000  -0.000000  -0.000000   0.000000   0.000000
   16  O  4  X    0.000000   0.000000  -0.000000  -0.000000  -0.000000
   17  O  4  Y   -0.000000  -0.000000  -0.000000   0.000001   0.000000
   18  O  4  Z   -0.000000  -0.000000  -0.000000   0.000000   0.000000
   19  O  4  S   -0.000479  -0.003464  -0.000178   0.005560   0.001465
   20  O  4  X    0.000083   0.000490  -0.001765  -0.000789  -0.000210
   21  O  4  Y   -0.002792  -0.016676  -0.000862   0.024992   0.007059
   22  O  4  Z   -0.000731  -0.004361  -0.000227   0.007005   0.000060
   23  H  5  S   -0.002508  -0.033549   0.002618   0.060371   0.016423
   24  H  5  S   -0.573538  -1.068983   0.019355   0.629446   0.178143
   25  H  6  S   -0.000000  -0.000000   0.000000   0.000000   0.000000
   26  H  6  S   -0.005919  -0.017133   0.003288   0.018197   0.001374

                      6          7          8          9         10

    6  O  1  S  -10.305461
    7  O  1  X   -0.139680  -7.287143
    8  O  1  Y    0.156122   0.007083  -7.353740
    9  O  1  Z    0.187976  -0.062579   0.042988  -7.195571
   10  H  2  S   -3.123463  -4.021382  -0.576934  -0.607068  -6.577641
   11  H  2  S   -5.413923  -3.042475  -0.308737  -0.350834  -4.607080
   12  H  3  S   -3.221503   1.081988  -2.819943   2.797020  -0.285685
   13  H  3  S   -5.471978   0.720460  -1.949177   2.131268  -1.496146
   14  O  4  S   -0.000478  -0.000083   0.002788   0.000730  -0.000000
   15  O  4  S   -0.003560  -0.000487   0.017099   0.004474  -0.000000
   16  O  4  X    0.000207  -0.001789  -0.000992  -0.000258  -0.000000
   17  O  4  Y   -0.005800  -0.000783   0.026037   0.007291  -0.000001
   18  O  4  Z   -0.001525  -0.000204   0.007328   0.000105  -0.000000
   19  O  4  S   -0.059082  -0.004805   0.175080   0.045899  -0.001685
   20  O  4  X    0.005577  -0.050656  -0.016640  -0.004367  -0.002132
   21  O  4  Y   -0.172924  -0.014074   0.448952   0.131179  -0.007281
   22  O  4  Z   -0.045236  -0.003686   0.130878  -0.016639  -0.002179
   23  H  5  S   -0.395441   0.042864   1.021724   0.276893  -0.007583
   24  H  5  S   -2.014083   0.068011   2.210846   0.614447  -0.402167
   25  H  6  S   -0.000774   0.000649   0.003747   0.000310  -0.000000
   26  H  6  S   -0.083245   0.031323   0.185099   0.016174  -0.004748

                     11         12         13         14         15

   11  H  2  S   -6.334026
   12  H  3  S   -1.494318  -6.522952
   13  H  3  S   -3.394361  -4.568126  -6.238553
   14  O  4  S   -0.010824  -0.000000  -0.003430 -34.902761
   15  O  4  S   -0.029858  -0.000000  -0.010635  -8.565595 -12.028457
   16  O  4  X   -0.008396   0.000000   0.001285   0.020950   0.110217
   17  O  4  Y   -0.028902  -0.000000  -0.012126  -0.037415  -0.196857
   18  O  4  Z   -0.008795  -0.000000  -0.000339  -0.024421  -0.128483
   19  O  4  S   -0.126822  -0.000374  -0.058552  -7.099878  -9.441526
   20  O  4  X   -0.068455   0.000181   0.013532   0.003686   0.066706
   21  O  4  Y   -0.249048  -0.001916  -0.137328  -0.006583  -0.119609
   22  O  4  Z   -0.074458  -0.000067  -0.005369  -0.004297  -0.077865
   23  H  5  S   -0.378797  -0.002577  -0.246052  -0.807016  -1.912007
   24  H  5  S   -1.507681  -0.275756  -1.184309  -2.315509  -3.767019
   25  H  6  S   -0.005080  -0.000000  -0.002310  -0.894076  -2.003698
   26  H  6  S   -0.096222  -0.002410  -0.059939  -2.373154  -3.823313

                     16         17         18         19         20

   16  O  4  X  -10.569923
   17  O  4  Y   -0.013366 -10.632579
   18  O  4  Z    0.024710  -0.003220 -10.557718
   19  O  4  S    0.105286  -0.188718  -0.122884 -10.173957
   20  O  4  X   -5.133710  -0.012297   0.022825   0.175998  -7.076434
   21  O  4  Y   -0.012297  -5.192293  -0.003156  -0.364338  -0.038407
   22  O  4  Z    0.022825  -0.003156  -5.122478  -0.216843   0.074481
   23  H  5  S    0.346731  -2.057034  -0.511753  -3.331005   0.723130
   24  H  5  S    0.243023  -1.302410  -0.348686  -5.509730   0.590868
   25  H  6  S    1.531431   1.077896  -1.100628  -3.204139   2.890402
   26  H  6  S    0.927025   0.564687  -0.682047  -5.419131   2.176484

                     21         22         23         24         25

   21  O  4  Y   -7.322934
   22  O  4  Z   -0.024333  -7.043006
   23  H  5  S   -4.379865  -1.086201  -7.650654
   24  H  5  S   -3.342458  -0.887995  -5.300237  -7.398570
   25  H  6  S    2.030395  -2.078713  -0.293912  -1.506197  -6.497770
   26  H  6  S    1.263283  -1.616077  -1.628446  -3.537650  -4.551856

                     26

   26  H  6  S   -6.213330
 KINETIC ENERGY INTEGRALS

                      1          2          3          4          5

    1  O  1  S   29.611820
    2  O  1  S   -2.598459   2.787882
    3  O  1  X    0.000000   0.000000   5.351306
    4  O  1  Y   -0.000000   0.000000   0.000000   5.351306
    5  O  1  Z   -0.000000  -0.000000  -0.000000   0.000000   5.351306
    6  O  1  S    0.223837   0.652395   0.000000   0.000000   0.000000
    7  O  1  X   -0.000000  -0.000000   0.761164   0.000000   0.000000
    8  O  1  Y   -0.000000   0.000000   0.000000   0.761164   0.000000
    9  O  1  Z    0.000000  -0.000000   0.000000   0.000000   0.761164
   10  H  2  S   -0.038986  -0.056880   0.093658   0.014338   0.014748
   11  H  2  S    0.021382   0.089426   0.073198   0.011206   0.011526
   12  H  3  S   -0.039257  -0.049728  -0.031221   0.081057  -0.078976
   13  H  3  S    0.022517   0.093565  -0.020209   0.052469  -0.051122
   14  O  4  S    0.000000  -0.000000  -0.000000   0.000000   0.000000
   15  O  4  S   -0.000000  -0.000000  -0.000000   0.000000   0.000000
   16  O  4  X    0.000000   0.000000  -0.000000  -0.000000  -0.000000
   17  O  4  Y   -0.000000  -0.000000  -0.000000   0.000000   0.000000
   18  O  4  Z   -0.000000  -0.000000  -0.000000   0.000000   0.000000
   19  O  4  S   -0.000078  -0.000945  -0.000043   0.001450   0.000380
   20  O  4  X    0.000012   0.000118  -0.000467  -0.000178  -0.000047
   21  O  4  Y   -0.000403  -0.003944  -0.000178   0.005482   0.001559
   22  O  4  Z   -0.000106  -0.001033  -0.000047   0.001559  -0.000064
   23  H  5  S   -0.000703  -0.010975   0.000805   0.017769   0.004819
   24  H  5  S   -0.003125  -0.008864  -0.000541  -0.011956  -0.003242
   25  H  6  S   -0.000000  -0.000000   0.000000   0.000000   0.000000
   26  H  6  S   -0.000313  -0.001888   0.000344   0.001814   0.000123

                      6          7          8          9         10

    6  O  1  S    0.560526
    7  O  1  X    0.000000   0.934210
    8  O  1  Y   -0.000000   0.000000   0.934210
    9  O  1  Z   -0.000000   0.000000   0.000000   0.934210
   10  H  2  S    0.107216   0.449436   0.068806   0.070769   1.549405
   11  H  2  S    0.157267   0.221873   0.033968   0.034937   0.293151
   12  H  3  S    0.117802  -0.127143   0.330095  -0.321622  -0.042541
   13  H  3  S    0.162405  -0.060696   0.157581  -0.153536   0.011113
   14  O  4  S   -0.000078  -0.000012   0.000403   0.000106  -0.000000
   15  O  4  S   -0.000945  -0.000118   0.003944   0.001033  -0.000000
   16  O  4  X    0.000043  -0.000467  -0.000178  -0.000047  -0.000000
   17  O  4  Y   -0.001450  -0.000178   0.005482   0.001559  -0.000001
   18  O  4  Z   -0.000380  -0.000047   0.001559  -0.000064  -0.000000
   19  O  4  S   -0.008553  -0.000562   0.018847   0.004936  -0.000545
   20  O  4  X    0.000562  -0.006107  -0.001047  -0.000274  -0.000659
   21  O  4  Y   -0.018847  -0.001047   0.028966   0.009193  -0.002094
   22  O  4  Z   -0.004936  -0.000274   0.009193  -0.003731  -0.000633
   23  H  5  S   -0.033737   0.001303   0.028779   0.007804  -0.002773
   24  H  5  S    0.006354  -0.003676  -0.081178  -0.022014  -0.015795
   25  H  6  S   -0.000256   0.000213   0.001121   0.000076  -0.000000
   26  H  6  S   -0.007324   0.002225   0.011739   0.000794  -0.000808

                     11         12         13         14         15

   11  H  2  S    0.274787
   12  H  3  S    0.011113   1.549405
   13  H  3  S    0.060025   0.293151   0.274787
   14  O  4  S   -0.000506  -0.000000  -0.000201  29.611820
   15  O  4  S   -0.002876  -0.000000  -0.001278  -2.598459   2.787882
   16  O  4  X   -0.000749   0.000000   0.000134   0.000000   0.000000
   17  O  4  Y   -0.002381  -0.000000  -0.001324   0.000000   0.000000
   18  O  4  Z   -0.000719  -0.000000  -0.000019   0.000000   0.000000
   19  O  4  S   -0.009581  -0.000128  -0.005663   0.223837   0.652395
   20  O  4  X   -0.003964   0.000061   0.001021   0.000000  -0.000000
   21  O  4  Y   -0.012606  -0.000602  -0.010102   0.000000  -0.000000
   22  O  4  Z   -0.003808  -0.000009  -0.000143  -0.000000  -0.000000
   23  H  5  S   -0.015795  -0.001017  -0.014068  -0.038973  -0.057080
   24  H  5  S   -0.004025  -0.014068  -0.010519   0.021348   0.089301
   25  H  6  S   -0.000808  -0.000000  -0.000424  -0.039257  -0.049719
   26  H  6  S   -0.006563  -0.000424  -0.004770   0.022519   0.093570

                     16         17         18         19         20

   16  O  4  X    5.351306
   17  O  4  Y    0.000000   5.351306
   18  O  4  Z    0.000000   0.000000   5.351306
   19  O  4  S   -0.000000  -0.000000   0.000000   0.560526
   20  O  4  X    0.761164  -0.000000  -0.000000   0.000000   0.934210
   21  O  4  Y   -0.000000   0.761164  -0.000000  -0.000000   0.000000
   22  O  4  Z   -0.000000  -0.000000   0.761164   0.000000   0.000000
   23  H  5  S   -0.015174   0.091344   0.022379   0.106900  -0.073208
   24  H  5  S   -0.011932   0.071828   0.017598   0.157111  -0.036178
   25  H  6  S   -0.082270  -0.059694   0.058794   0.117815  -0.334974
   26  H  6  S   -0.053243  -0.038633   0.038050   0.162412  -0.159904

                     21         22         23         24         25

   21  O  4  Y    0.934210
   22  O  4  Z    0.000000   0.934210
   23  H  5  S    0.440695   0.107969   1.549405
   24  H  5  S    0.217784   0.053357   0.293151   0.274787
   25  H  6  S   -0.243054   0.239387  -0.042606   0.011178   1.549405
   26  H  6  S   -0.116025   0.114275   0.011178   0.060113   0.293151

                     26

   26  H  6  S    0.274787
 Z-ANGULAR MOMENTUM INTEGRALS

                      1          2          3          4          5

    1  O  1  S   -0.007421
    2  O  1  S    0.430372  -0.206346
    3  O  1  X    0.279614  -0.017558   0.428633
    4  O  1  Y   -0.205542   0.278671  -0.498369  -0.472409
    5  O  1  Z    0.501385   0.472139  -0.002727   0.006704   0.041389
    6  O  1  S    0.098085  -0.022856   0.011138   0.044425   0.100414
    7  O  1  X    0.099132   0.094775  -0.108712  -0.102575  -0.007560
    8  O  1  Y   -0.123544  -0.054252   0.050629  -0.139153  -0.126881
    9  O  1  Z   -0.197607  -0.188736   0.007630  -0.014035   0.169846
   10  H  2  S    5.000000  -0.079648   0.535278   0.517504  -0.467318
   11  H  2  S    0.143142   0.638320  -0.147507  -0.250141   0.131542
   12  H  3  S   -0.168421  -0.024694   0.130342  -0.418388  -0.160457
   13  H  3  S    0.215359  -0.095020  -0.040870   0.104138   0.465318
   14  O  4  S    0.305847   0.216806   7.000000  -0.187295   0.669479
   15  O  4  S   -0.008426  -0.252962  -0.073824   0.758580  -0.003302
   16  O  4  X    0.124260   2.001577   0.278817  -0.815619  -0.302247
   17  O  4  Y   -0.592952   0.330582  -0.200292  -0.654636  -0.181069
   18  O  4  Z    0.045833   0.203894  -0.007068   0.092936  -0.058548
   19  O  4  S    0.430263  -0.201783  -0.944439  -0.585864  -0.795242
   20  O  4  X    0.328892  -1.224746  -0.338065   1.272963   0.000429
   21  O  4  Y   -0.119250   0.110175   0.041721  -0.315559   0.221350
   22  O  4  Z   -0.137084  -0.099215   0.003681   0.006177   0.408298
   23  H  5  S   -0.322830   0.092984  -0.275950   0.167212   0.319415
   24  H  5  S   -0.231750   0.070800  -0.486012  -0.060911   0.374346
   25  H  6  S   -0.053562  -0.206401   0.028964  -0.015228   0.074380
   26  H  6  S    0.560869  -0.516399   0.173577   0.402252  -0.275189

                      6          7          8          9         10

    6  O  1  S   -0.020668
    7  O  1  X    0.024067  -0.136937
    8  O  1  Y   -0.057731   0.002274   0.003028
    9  O  1  Z    0.500673  -0.079001  -0.042054   0.169009
   10  H  2  S   -0.448224  -0.133997   0.289255  -0.157225  -0.253236
   11  H  2  S   -0.433274  -0.367961  -0.368094  -0.310582   0.085051
   12  H  3  S   -0.024892   0.122330   0.158456   0.149989   0.335708
   13  H  3  S   -0.083646  -0.038970   0.094272  -0.237081  -0.193750
   14  O  4  S    0.197810  -0.119509  -0.171786  -0.434866  -0.346234
   15  O  4  S    0.564617   0.171169  -0.076923   0.056882  -0.185359
   16  O  4  X    0.138242  -1.715810  -0.299380   0.125591   0.020608
   17  O  4  Y    9.000000  -0.005701   0.381967   0.074455  -0.006344
   18  O  4  Z   -0.231950   0.005555  -0.139695   0.106790   0.486458
   19  O  4  S    0.386587   0.498033  -1.122881  -0.125581   1.350064
   20  O  4  X    0.001635  -0.013237  -0.010012  -0.001686   0.001063
   21  O  4  Y   -0.137261   0.066894   0.051931  -0.492193   0.391942
   22  O  4  Z   -0.248433  13.000000   0.026584  -0.586023   0.360277
   23  H  5  S   -0.215882   0.003092  -0.063733  -0.173670  -0.065116
   24  H  5  S    0.418921  -0.291585   1.127869  -0.882672   1.000000
   25  H  6  S    0.287475  -0.040017   0.221090  -0.121713  -0.178491
   26  H  6  S    0.563408  -0.214917  -0.441428   1.000000   0.000000

                     11         12         13         14         15

   11  H  2  S   -0.178941
   12  H  3  S    0.283942  -0.102407
   13  H  3  S   -0.220892  -0.177972  -0.142020
   14  O  4  S   -0.386465  -0.321488  -0.004296  -0.535870
   15  O  4  S    0.150711   0.000466  -1.233285  -0.113994   0.355034
   16  O  4  X   -1.433232   0.182352   0.280880  -0.152610   2.038954
   17  O  4  Y   -0.054826  -0.544967  -0.158149   0.018321   0.118821
   18  O  4  Z   -0.000803   0.005200   0.223642  -0.070868   0.265153
   19  O  4  S   -0.001640   0.040936  -0.567539   0.233293  -0.369278
   20  O  4  X    0.022000   0.024499   0.004122   0.038803  -0.031139
   21  O  4  Y   -0.007775   0.178976  -0.143833  -0.671700   0.019551
   22  O  4  Z   -0.518303   0.917937  -0.642000  -0.452583   0.261955
   23  H  5  S   -0.049961   0.056350   0.244636   0.107737   0.081585
   24  H  5  S    0.002612  -0.326432  -0.270283   0.117381   0.151345
   25  H  6  S    0.097150   0.026883  -0.303083  -0.219771  -0.426512
   26  H  6  S    0.000000  -0.369666  -0.042934   0.437277   0.454414

                     16         17         18         19         20

   16  O  4  X   -0.386999
   17  O  4  Y    0.065616   0.122532
   18  O  4  Z   -0.020208   0.774398   0.306920
   19  O  4  S   -0.046707   0.943701  -0.381500  11.000000
   20  O  4  X   -0.010775   0.002094  -0.001467  -0.077229   0.209587
   21  O  4  Y   -0.057599   0.182203   0.968267  -0.010204   0.872856
   22  O  4  Z   -0.000515   0.012211   0.072235   0.219976  -0.063765
   23  H  5  S   -0.144704   0.140494   0.174502  -0.063645   0.002428
   24  H  5  S    0.483560   0.431344  -0.189430   0.700263  -0.508226
   25  H  6  S    0.016104   0.118774   0.234842   0.444421  -0.013249
   26  H  6  S    0.126132  -0.615204  -0.141821  -0.451838  -0.096625

                     21         22         23         24         25

   21  O  4  Y   -0.503644
   22  O  4  Z   -0.003326  -0.112053
   23  H  5  S    0.100614   0.301762   0.037218
   24  H  5  S    0.921028  -0.654917  -0.001692   0.024853
   25  H  6  S   -0.151221   0.225019  -0.102334   0.189022  -0.052286
   26  H  6  S    0.623340   0.184056  -0.277041   0.200164  -0.285065

                     26

   26  H  6  S   -0.019367

          --------------------
          2 ELECTRON INTEGRALS
          --------------------

 DIRECT SCF METHOD SKIPS INTEGRAL STORAGE ON DISK.
  ...... END OF TWO-ELECTRON INTEGRALS .....
 STEP CPU TIME =     0.00 TOTAL CPU TIME =          0.0 (      0.0 MIN)
 TOTAL WALL CLOCK TIME=          0.0 SECONDS, CPU UTILIZATION IS    99.98%
 SCHWARZ INEQUALITY OVERHEAD:       700 INTEGRALS, T=        0.00
 ESP lfg=    1: NZ      106187 skipped       830 blocks       7 superblocks.

          --------------------
          2 ELECTRON INTEGRALS
          --------------------

 DIRECT SCF METHOD SKIPS INTEGRAL STORAGE ON DISK.
  ...... END OF TWO-ELECTRON INTEGRALS .....
 STEP CPU TIME =     0.01 TOTAL CPU TIME =          0.1 (      0.0 MIN)
 TOTAL WALL CLOCK TIME=          0.1 SECONDS, CPU UTILIZATION IS    99.98%
 ...... END OF ONE-ELECTRON INTEGRALS ......
 STEP CPU TIME =     0.00 TOTAL CPU TIME =          0.1 (      0.0 MIN)
 TOTAL WALL CLOCK TIME=          0.1 SECONDS, CPU UTILIZATION IS    99.98%

          --------------------
          2 ELECTRON INTEGRALS
          --------------------

 THE -PK- OPTION IS OFF, THE INTEGRALS ARE NOT IN SUPERMATRIX FORM.
 STORING   15000 INTEGRALS/RECORD ON DISK, USING 12 BYTES/INTEGRAL.
 TWO ELECTRON INTEGRAL EVALUATION REQUIRES   89461 WORDS OF MEMORY.
 SCHWARZ INEQUALITY OVERHEAD:       350 INTEGRALS, T=        0.00
 II,JST,KST,LST =  1  1  1  1 NREC =         1 INTLOC =    1
 II,JST,KST,LST =  2  1  1  1 NREC =         1 INTLOC =    2
 II,JST,KST,LST =  3  1  1  1 NREC =         1 INTLOC =   34
 II,JST,KST,LST =  4  1  1  1 NREC =         1 INTLOC =  214
 II,JST,KST,LST =  5  1  1  1 NREC =         1 INTLOC =  719
 II,JST,KST,LST =  6  1  1  1 NREC =         1 INTLOC = 1390
 II,JST,KST,LST =  7  1  1  1 NREC =         1 INTLOC = 2260
 II,JST,KST,LST =  8  1  1  1 NREC =         1 INTLOC = 3365
 II,JST,KST,LST =  9  1  1  1 NREC =         1 INTLOC = 4044
 II,JST,KST,LST = 10  1  1  1 NREC =         1 INTLOC =10843
 II,JST,KST,LST = 11  1  1  1 NREC =         2 INTLOC =10789
 II,JST,KST,LST = 12  1  1  1 NREC =         3 INTLOC = 1519
 II,JST,KST,LST = 13  1  1  1 NREC =         3 INTLOC = 8161
 II,JST,KST,LST = 14  1  1  1 NREC =         3 INTLOC =14667
 SCHWARZ INEQUALITY TEST SKIPPED         632 INTEGRAL BLOCKS.
 TOTAL NUMBER OF NONZERO TWO-ELECTRON INTEGRALS =               52943
          4 INTEGRAL RECORDS WERE STORED ON DISK FILE  8.
  ...... END OF TWO-ELECTRON INTEGRALS .....
[...]
   51  H 12  S    0.000000   0.000001  -0.000000   0.000004   0.000000
   52  H 12  S    0.000000   0.000049  -0.000013   0.000073   0.000006

                     36         37         38         39         40

   36  H  8  S    0.166571
   37  H  8  S    0.075829   0.091143
   38  H  9  S   -0.001011  -0.007839   0.138874
   39  H  9  S   -0.007128  -0.014975   0.052972   0.084600
   40  O 10  S   -0.000000  -0.000000  -0.000000  -0.000001   2.100001
   41  O 10  S    0.000000   0.000001  -0.000000   0.000004  -0.021697
   42  O 10  X   -0.000000   0.000000  -0.000000   0.000004   0.000000
   43  O 10  Y    0.000000   0.000013   0.000000   0.000013  -0.000000
   44  O 10  Z    0.000000   0.000000  -0.000000   0.000007  -0.000000
   45  O 10  S    0.000000   0.000116   0.000001   0.000247  -0.081226
   46  O 10  X    0.000000   0.000012  -0.000001   0.000060   0.000000
   47  O 10  Y    0.000002   0.000360   0.000005   0.000358  -0.000000
   48  O 10  Z    0.000000   0.000001  -0.000000   0.000117  -0.000000
   49  H 11  S   -0.000000   0.000053  -0.000002   0.000016  -0.000746
   50  H 11  S   -0.000739  -0.003144  -0.000997  -0.003541   0.000844
   51  H 12  S   -0.000000  -0.000000   0.000000  -0.000001  -0.000775
   52  H 12  S    0.000000  -0.000001   0.000001   0.000003   0.000622

                     41         42         43         44         45

   41  O 10  S    0.131822
   42  O 10  X   -0.000000   0.425315
   43  O 10  Y    0.000000  -0.000000   0.355531
   44  O 10  Z    0.000000   0.000000   0.000000   0.483955
   45  O 10  S    0.297008  -0.000000   0.000000   0.000000   1.265359
   46  O 10  X   -0.000000   0.243939  -0.000000   0.000000  -0.000000
   47  O 10  Y    0.000000  -0.000000   0.185227   0.000000   0.000000
   48  O 10  Z    0.000000   0.000000   0.000000   0.290428   0.000000
   49  H 11  S    0.004707   0.000890   0.036974   0.002042   0.028657
   50  H 11  S   -0.003104   0.000338   0.013921   0.000201  -0.035208
   51  H 12  S    0.005161   0.021933   0.012546   0.010888   0.018953
   52  H 12  S   -0.002290   0.009737   0.005877   0.005072  -0.034474

                     46         47         48         49         50

   46  O 10  X    0.565153
   47  O 10  Y   -0.000000   0.393488
   48  O 10  Z    0.000000   0.000000   0.701860
   49  H 11  S    0.003792   0.112431   0.007727   0.138508
   50  H 11  S    0.001838   0.050421   0.001112   0.053302   0.086703
   51  H 12  S    0.064383   0.031641   0.033188  -0.000992  -0.007370
   52  H 12  S    0.038398   0.019966   0.020916  -0.007912  -0.015699

                     51         52

   51  H 12  S    0.166557
   52  H 12  S    0.075942   0.091178

               ----- POPULATIONS IN EACH AO -----
                             MULLIKEN      LOWDIN
              1  O  1  S      1.99670     1.98871
              2  O  1  S      0.41357     0.56799
              3  O  1  X      0.65482     0.64272
              4  O  1  Y      0.71098     0.70728
              5  O  1  Z      0.74452     0.74497
              6  O  1  S      1.47204     1.04661
              7  O  1  X      0.86185     0.85975
              8  O  1  Y      0.95052     0.95675
              9  O  1  Z      0.97508     0.97548
             10  H  2  S      0.38064     0.39943
             11  H  2  S      0.19974     0.34446
             12  H  3  S      0.43151     0.44449
             13  H  3  S      0.20473     0.31769
             14  O  4  S      1.99670     1.98870
             15  O  4  S      0.41319     0.56765
             16  O  4  X      0.70815     0.70424
             17  O  4  Y      0.61022     0.59082
             18  O  4  Z      0.79251     0.80105
             19  O  4  S      1.47184     1.04662
             20  O  4  X      0.94868     0.95446
             21  O  4  Y      0.78766     0.79800
             22  O  4  Z      1.05529     1.04354
             23  H  5  S      0.38016     0.39909
             24  H  5  S      0.20215     0.34698
             25  H  6  S      0.43140     0.44430
             26  H  6  S      0.20533     0.31822
             27  O  7  S      1.99670     1.98871
             28  O  7  S      0.41357     0.56799
             29  O  7  X      0.65475     0.64263
             30  O  7  Y      0.71081     0.70709
             31  O  7  Z      0.74475     0.74524
             32  O  7  S      1.47204     1.04661
             33  O  7  X      0.86169     0.85961
             34  O  7  Y      0.95034     0.95659
             35  O  7  Z      0.97543     0.97579
             36  H  8  S      0.43146     0.44444
             37  H  8  S      0.20479     0.31772
             38  H  9  S      0.38067     0.39946
             39  H  9  S      0.19970     0.34445
             40  O 10  S      1.99670     1.98870
             41  O 10  S      0.41319     0.56765
             42  O 10  X      0.70804     0.70411
             43  O 10  Y      0.61019     0.59079
             44  O 10  Z      0.79265     0.80122
             45  O 10  S      1.47183     1.04662
             46  O 10  X      0.94852     0.95432
             47  O 10  Y      0.78766     0.79800
             48  O 10  Z      1.05547     1.04369
             49  H 11  S      0.38011     0.39904
             50  H 11  S      0.20222     0.34700
             51  H 12  S      0.43146     0.44435
             52  H 12  S      0.20526     0.31819

          ----- MULLIKEN ATOMIC OVERLAP POPULATIONS -----
          (OFF-DIAGONAL ELEMENTS NEED TO BE MULTIPLIED BY 2)

             1           2           3           4           5

    1    8.2430759
    2    0.2279970   0.3294299
    3    0.2609914  -0.0309575   0.4093724
    4   -0.0106873   0.0008148   0.0005066   8.2498279
    5    0.0673244  -0.0045224  -0.0038316   0.2268346   0.3318004
    6    0.0001219   0.0000034  -0.0000008   0.2617352  -0.0319731
    7   -0.0000097   0.0000237   0.0000004  -0.0100289   0.0008498
    8    0.0000004  -0.0000039  -0.0000000   0.0001614   0.0000035
    9    0.0000238   0.0002652  -0.0000039   0.0650602  -0.0045108
   10   -0.0100286   0.0650550   0.0001615  -0.0000091   0.0000241
   11    0.0008500  -0.0045105   0.0000035   0.0000241   0.0003224
   12    0.0004298  -0.0032203   0.0000027   0.0000004  -0.0000052

             6           7           8           9          10

    6    0.4096409
    7    0.0004299   8.2430882
    8    0.0000027   0.2609896   0.4093724
    9   -0.0032209   0.2279911  -0.0309531   0.3294182
   10    0.0000004  -0.0106871   0.0005063   0.0008148   8.2498426
   11   -0.0000052   0.0673214  -0.0038299  -0.0045237   0.2268346
   12   -0.0000000   0.0001220  -0.0000008   0.0000034   0.2617397

            11          12

   11    0.3318147
   12   -0.0319741   0.4096195

          TOTAL MULLIKEN AND LOWDIN ATOMIC POPULATIONS
       ATOM         MULL.POP.                    LOW.POP.

          TOTAL MULLIKEN AND LOWDIN ATOMIC POPULATIONS
       ATOM         MULL.POP.    CHARGE          LOW.POP.     CHARGE
    1 O             8.780089                     8.490264
    1 O             8.780089   -0.780089         8.490264   -0.490264
    2 H             0.580374                     0.743892
    2 H             0.580374    0.419626         0.743892    0.256108
    3 H             0.636245                     0.762177
    3 H             0.636245    0.363755         0.762177    0.237823
    4 O             8.784240                     8.495079
    4 O             8.784240   -0.784240         8.495079   -0.495079
    5 H             0.582316                     0.746070
    5 H             0.582316    0.417684         0.746070    0.253930
    6 H             0.636734                     0.762520
    6 H             0.636734    0.363266         0.762520    0.237480
    7 O             8.780090                     8.490257
    7 O             8.780090   -0.780090         8.490257   -0.490257
    8 H             0.636249                     0.762161
    8 H             0.636249    0.363751         0.762161    0.237839
    9 H             0.580364                     0.743905
    9 H             0.580364    0.419636         0.743905    0.256095
   10 O             8.784254                     8.495098
   10 O             8.784254   -0.784254         8.495098   -0.495098
   11 H             0.582327                     0.746047
   11 H             0.582327    0.417673         0.746047    0.253953
   12 H             0.636717                     0.762531
   12 H             0.636717    0.363283         0.762531    0.237469

          MULLIKEN SPHERICAL HARMONIC POPULATIONS
       ATOM           S       P       D      F      G      H      I    TOTAL
    1 O             3.88    4.90    0.00   0.00   0.00   0.00   0.00    8.78
    2 H             0.58    0.00    0.00   0.00   0.00   0.00   0.00    0.58
    3 H             0.64    0.00    0.00   0.00   0.00   0.00   0.00    0.64
    4 O             3.88    4.90    0.00   0.00   0.00   0.00   0.00    8.78
    5 H             0.58    0.00    0.00   0.00   0.00   0.00   0.00    0.58
    6 H             0.64    0.00    0.00   0.00   0.00   0.00   0.00    0.64
    7 O             3.88    4.90    0.00   0.00   0.00   0.00   0.00    8.78
    8 H             0.64    0.00    0.00   0.00   0.00   0.00   0.00    0.64
    9 H             0.58    0.00    0.00   0.00   0.00   0.00   0.00    0.58
   10 O             3.88    4.90    0.00   0.00   0.00   0.00   0.00    8.78
   11 H             0.58    0.00    0.00   0.00   0.00   0.00   0.00    0.58
   12 H             0.64    0.00    0.00   0.00   0.00   0.00   0.00    0.64

          -------------------------------
          BOND ORDER AND VALENCE ANALYSIS     BOND ORDER THRESHOLD=0.050
          -------------------------------

                   BOND                       BOND                       BOND
  ATOM PAIR DIST  ORDER      ATOM PAIR DIST  ORDER      ATOM PAIR DIST  ORDER
    1   2  0.984  0.687        1   3  0.965  0.832        1   5  1.777  0.148
    2  10  1.792  0.143        4   5  0.985  0.684        4   6  0.965  0.833
    4   9  1.792  0.143        7   8  0.965  0.832        7   9  0.984  0.687
    7  11  1.777  0.148       10  11  0.985  0.684       10  12  0.965  0.833

                       TOTAL       BONDED        FREE
      ATOM            VALENCE     VALENCE     VALENCE
    1 O                 1.702       1.702       0.000
    2 H                 0.835       0.835      -0.000
    3 H                 0.838       0.838       0.000
    4 O                 1.695       1.695       0.000
    5 H                 0.837       0.837      -0.000
    6 H                 0.839       0.839       0.000
    7 O                 1.702       1.702       0.000
    8 H                 0.838       0.838       0.000
    9 H                 0.835       0.835      -0.000
   10 O                 1.695       1.695       0.000
   11 H                 0.837       0.837      -0.000
   12 H                 0.839       0.839       0.000

          ---------------------
          ELECTROSTATIC MOMENTS
          ---------------------

 POINT   1           X           Y           Z (BOHR)    CHARGE
                -0.000109    0.000056   -0.000033       -0.00 (A.U.)
         DX          DY          DZ         /D/  (DEBYE)
     0.001884   -0.000731    0.000293    0.002042
 ...... END OF PROPERTY EVALUATION ......
 STEP CPU TIME =     0.00 TOTAL CPU TIME =          0.5 (      0.0 MIN)
 TOTAL WALL CLOCK TIME=          0.5 SECONDS, CPU UTILIZATION IS   100.00%
 Redoing 1e ESP:                    -1
 STEP CPU TIME =     0.00 TOTAL CPU TIME =          0.5 (      0.0 MIN)
 TOTAL WALL CLOCK TIME=          0.5 SECONDS, CPU UTILIZATION IS   100.00%
 STEP CPU TIME =     0.00 TOTAL CPU TIME =          0.5 (      0.0 MIN)
 TOTAL WALL CLOCK TIME=          0.5 SECONDS, CPU UTILIZATION IS   100.00%

  iFrag=      2 jFrag=      1 EFMOu=  -303.637512321 Tr= 0.000000000
 STEP CPU TIME =     0.00 TOTAL CPU TIME =          0.5 (      0.0 MIN)
 TOTAL WALL CLOCK TIME=          0.5 SECONDS, CPU UTILIZATION IS   100.00%

 Dimer synchronisation for layer 1 took     0.0 s.
 STEP CPU TIME =     0.00 TOTAL CPU TIME =          0.5 (      0.0 MIN)
 TOTAL WALL CLOCK TIME=          0.5 SECONDS, CPU UTILIZATION IS   100.00%
 STEP CPU TIME =     0.00 TOTAL CPU TIME =          0.5 (      0.0 MIN)
 TOTAL WALL CLOCK TIME=          0.5 SECONDS, CPU UTILIZATION IS   100.00%


         FMO properties
         ###############


 Layer 1 converged in  6 iterations (max200, conv .10E-06).


 Nuclear repulsion energy:            140.712110486
 Total number of atoms:                    12
 Total number of electrons:                40
 Total charge:                              0
 Total spin multiplicity:                   1
 Total number of basis functions:          52
 Total number of molecular orbitals:       52

 Energy values (E) are given with external ESP subtracted.

 D(dipole), Q(quadrupole) and O(octopole) moments are printed in the order:
 X,Y,Z; XX,YY,ZZ,XY,XZ,YZ; XXX,XXY,XXZ,XYY,YYY,YYZ,XZZ,YZZ,ZZZ,XYZ,
 computed at the point:   -0.00010875   0.00005557  -0.00003251

 One-body FMO properties.
 =======================

                      EPL0d    EPL0s    EPL0   EPLd*PLd    DX        DY        DZ
    1(001     ,L1)    0.000    0.000    0.000*********   0.05611  -3.64435  -0.69438
    2(002     ,L1)    0.000    0.000    0.000*********  -0.05420   3.64369   0.69438

 Frontier molecular orbital (FMO!) properties based on Koopmans' theorem.
 Electronegativity = - chemical potential. All values are in eV.

  Frag  Ionization    Electron    Chemical    Global       Global  Electrophili-
         potential    affinity    potential  hardness     softness  city index
 EA and related properties are often very inaccurate.
 -------------------------------------------------------------------------------
     1   12.636724    6.847097   -9.741911    5.789627    0.172723      8.196108
     2   12.636806    6.847532   -9.742169    5.789273    0.172733      8.197044

 Total energy of the molecule: Euncorr(1)=     -303.580274447
 Dipole moment D(xyz),DA(1)=    0.0019134   -0.0006622   -0.0000034    0.0020247

 Two-body FMO properties.
 ========================

 DL: D=C dynamically correlated (MP2,CI), D=N not dynamically correlated
 (RHF,DFT). D=S separated dimer: semiclassical interaction (ES), D=M MCSCF.
 L stands for layer, Z is the monomer charge product, R is the interfragment
 distance relative to van-der-Waals radii (-1.00 is printed if distances are
 not computed). dDIJ*VIJ is the explicit embedded charge transfer energy.
 Q(I->J) is the charge transfer amount, printed as zero if not available.
 Positive values correspond to I in IJ having extra negative charge.
 total = (EIJ-EI-EJ)+dDIJ*VIJ = Ees+Eex+Ect+mix+Edisp+Gsol (all are in kcal/mol).

    I    J DL  Z    R   Q(I->J)  EIJ-EI-EJ dDIJ*VIJ    total     Ees      Eex    Ect+mix   Erc+di    Gsol         
 ---------------------------------------------------------------------------------------------------------
    2    1 N1  0   0.69 -0.0000   -35.917    0.000   -35.917   -35.050   16.310  -17.178    0.000    0.000

 Total energy of the molecule: Euncorr(2)=     -303.637512321

 Interaction energy relative to PL state:
 Eint = EES + EEX + E(CT+mix) + EDI
 Eint = E(FMO2) - E(FMO1) - E(BDA)
 Eint - interaction relative to PL state using PL state densities.

     Electrostatic (PL state, incl. EPLs)  EES         -35.050
     Exchange (PL state)                   EEX          16.310
     Charge transfer (PL state)        E(CT+mix)       -17.178
     Dispersion (PL state)                 EDI           0.000
         Total interaction (PL state)         Eint         -35.917

 Dipole moment D(xyz),DA(2)=    0.0018837   -0.0007310    0.0002934    0.0020418

 Charge transfer for each fragment:

  IFG QFG  DeltaQ     and its contributions from JFG, Q(JFG->IFG).
 ------------------------------------------------------------------------------
    1  0  -0.0000 =    2-> -0.0000
    2  0   0.0000 =    1->  0.0000

 Total absolute monomer transf. charge   =    0.000003
 Total amount of absolute transf. charge =    0.000002

                ONE ELECTRON ENERGY =         -700.0261854401
                TWO ELECTRON ENERGY =          255.6765626329
           NUCLEAR REPULSION ENERGY =          140.7121104864
                                      -----------------------
                       TOTAL ENERGY =         -303.6375123208

 ELECTRON-ELECTRON POTENTIAL ENERGY =          255.6765626329
  NUCLEUS-ELECTRON POTENTIAL ENERGY =        -1003.7485285882
   NUCLEUS-NUCLEUS POTENTIAL ENERGY =          140.7121104864
                                      -----------------------
             TOTAL POTENTIAL ENERGY =         -607.3598554689
               TOTAL KINETIC ENERGY =          303.7223431481
                 VIRIAL RATIO (V/T) =            1.9997206961

 n-body Mulliken  atomic charges Q(n)

    IAT  IFG   Z       Q(1)        Q(2)        Q(3)
     1    1   8.0   -0.738886   -0.780090
     2    1   1.0    0.375500    0.363751
     3    1   1.0    0.441644    0.419636
     4    1   8.0   -0.842905   -0.784254
     5    1   1.0    0.409977    0.417673
     6    1   1.0    0.354670    0.363283
     7    2   8.0   -0.738880   -0.780089
     8    2   1.0    0.441628    0.419626
     9    2   1.0    0.375504    0.363755
    10    2   8.0   -0.842892   -0.784240
    11    2   1.0    0.409991    0.417684
    12    2   1.0    0.354650    0.363266

 Done with FMO properties.
 STEP CPU TIME =     0.00 TOTAL CPU TIME =          0.5 (      0.0 MIN)
 TOTAL WALL CLOCK TIME=          0.5 SECONDS, CPU UTILIZATION IS   100.00%
 STEP CPU TIME =     0.00 TOTAL CPU TIME =          0.5 (      0.0 MIN)
 TOTAL WALL CLOCK TIME=          0.5 SECONDS, CPU UTILIZATION IS   100.00%

 Total timing statistics in pairs (CPU,wall) for each rank, sec

    Rank   total     SCF    corr     DFT    CPHF     EFP    solv     ESP    geom
 -------------------------------------------------------------------------------
       1       0.5      0.3      0.0      0.0    0.0   0.0    0.0     0.1    0.0
       1       0.5      0.3      0.0      0.0    0.0   0.0    0.0     0.1    0.0
averaged       0.5      0.3      0.0      0.0    0.0   0.0    0.0     0.1    0.0
averaged       0.5      0.3      0.0      0.0    0.0   0.0    0.0     0.1    0.0

  FMO  timing statistics in pairs (CPU,wall) for each rank, sec

    Rank  FMOini FMOscf1  FMOdm1 FMOsyn1 FMOscf2  FMOes2 FMOsyn2 FMOscf3 FMOsyn3
 -------------------------------------------------------------------------------
       1    0.0       0.3    0.0    0.0       0.1       0.0    0.0    0.0    0.0
       1    0.0       0.3    0.0    0.0       0.1       0.0    0.0    0.0    0.0
averaged    0.0       0.3    0.0    0.0       0.1       0.0    0.0    0.0    0.0
averaged    0.0       0.3    0.0    0.0       0.1       0.0    0.0    0.0    0.0
               580000  WORDS OF DYNAMIC MEMORY USED
 EXECUTION OF GAMESS TERMINATED NORMALLY 14:27:31 26-AUG-2025    
 DDI: 263640 bytes (0.3 MB / 0 MWords) used by master data server.

 ----------------------------------------
 CPU timing information for all processes
 ========================================
 0: 0.410 + 0.76 = 0.486
 ----------------------------------------
 ddikick.x: exited gracefully.
----- accounting info -----
Files used on the master node theomolsci-S2600STB were:
-rw-rw-r-- 1 theomolsci theomolsci  185055 Aug 26 14:27 /home/theomolsci/scr/water-4_RHF_621g_temp.dat
-rw-rw-r-- 1 theomolsci theomolsci    1439 Aug 26 14:27 /home/theomolsci/scr/water-4_RHF_621g_temp.F05
-rw-rw-r-- 1 theomolsci theomolsci 7920704 Aug 26 14:27 /home/theomolsci/scr/water-4_RHF_621g_temp.F08
-rw-rw-r-- 1 theomolsci theomolsci   65440 Aug 26 14:27 /home/theomolsci/scr/water-4_RHF_621g_temp.F10
-rw-rw-r-- 1 theomolsci theomolsci   81920 Aug 26 14:27 /home/theomolsci/scr/water-4_RHF_621g_temp.F40
Tuesday 26 August 2025 02:27:34 PM IST
0.1u 0.0s 0:03.73 5.8% 0+0k 0+16io 0pf+0w
