----- GAMESS execution script 'rungms' -----
This job is running on host theomolsci-S2600STB
under operating system Linux at Friday 29 August 2025 10:26:32 AM IST
Available scratch disk space (Kbyte units) at beginning of the job is
Filesystem      1K-blocks       Used  Available Use% Mounted on
/dev/sda2      3844033552 1224291920 2424400628  34% /
GAMESS temporary binary files will be written to /home/theomolsci/scr
GAMESS supplementary output files will be written to /home/theomolsci/scr
Copying input file ./water-4_RHF_621g_temp.inp to your run's scratch directory...

 Distributed Data Interface kickoff program.
 Initiating 1 compute processes on 1 nodes to run the following command:
 /home/theomolsci/gamess/gamess.01.x water-4_RHF_621g_temp 

          *******************************************************
          *                                                     *
          *          GAMESS VERSION = 30 SEP 2020 (R2)          *
          *                                                     *
          *              doi.org/10.1063/5.0005188              *
          *                                                     *
          **************** 64 BIT LINUX VERSION *****************

  GAMESS HAS BEEN MADE POSSIBLE WITH IMPORTANT CONTRIBUTIONS FROM
  THE FOLLOWING INDIVIDUALS (IN ALPHABETICAL ORDER):

     IVANA ADAMOVIC, CHRISTINE AIKENS, TOMOKO AKAMA,
     YURI ALEXEEV, YURIKO AOKI, POOJA ARORA, TOSHIO ASADA,
     ANDREY ASADCHEV, KIM K. BALDRIDGE, PRADIPTA BANDYOPADHYAY,
     MARIA BARYSZ, ROB BELL, JONATHAN BENTZ, COLLEEN BERTONI,
     JERRY A. BOATZ, BRETT BODE, KURT BRORSEN, KURT R. BRORSEN,
     LAIMUTIS BYTAUTAS, CALEB CARLIN, LAURA CARRINGTON,
     GALINA CHABAN, BENOIT CHAMPAGNE, WEI CHEN, MAHITO CHIBA,
     DAN CHIPMAN, CHEOL HO CHOI, TANNER CULPITT,
     DIPAYAN DATTA, PAUL DAY, ALBERT DEFUSCO,
     NUWAN DESILVA, J. EMILIANO DEUSTUA,
     TIM DUDLEY, MICHEL DUPUIS, STEVEN T. ELBERT,
     DMITRI FEDOROV, ALEX FINDLATER, GRAHAM FLETCHER,
     MARK FREITAG, CHRISTIAN FRIEDL, DAVID GARMER,
     IGOR S. GERASIMOV, KURT GLAESEMANN, MARK S. GORDON,
     JEFFREY GOUR, FENG LONG GU, EMILIE B. GUIDEZ,
     ANASTASIA GUNINA, SHARON HAMMES-SCHIFFER, MASATAKE HARUTA,
     KIMIHIKO HIRAO, YASUHIRO IKABATA, TZVETELIN IORDANOV,
     STEPHAN IRLE, KAZUYA ISHIMURA, JOE IVANIC, FRANK JENSEN,
     JAN H. JENSEN, VISVALDAS KAIRYS, MUNEAKI KAMIYA,
     MICHIO KATOUDA, NAOAKI KAWAKAMI, DAN KEMP, BERNARD KIRTMAN,
     KAZUO KITAURA, MARIUSZ KLOBUKOWSKI, MASATO KOBAYASHI,
     PRAKASHAN KORAMBATH, JACEK KORCHOWIEC, SHIRO KOSEKI,
     KAROL KOWALSKI, JIMMY KROMANN, STANISLAW KUCHARSKI,
     HENRY KURTZ, SAROM SOK LEANG, HUI LI, SHUHUA LI, WEI LI,
     JESSE LUTZ, ALEKSANDR O. LYKHIN, MARCIN MAKOWSKI,
     JOANI MATO, NIKITA MATSUNAGA, BENEDETTA MENNUCCI,
     GRANT MERRILL, NORIYUKI MINEZAWA, VLADIMIR MIRONOV,
     EISAKU MIYOSHI, JOHN A. MONTGOMERY JR., HIROTOSHI MORI,
     JONATHAN MULLIN, MONIKA MUSIAL, SHIGERU NAGASE,
     TAKESHI NAGATA, HIROMI NAKAI, TAKAHITO NAKAJIMA,
     YUYA NAKAJIMA, HARUYUKI NAKANO, HIROYA NAKATA, SEAN NEDD,
     HEATHER NETZLOFF, KIET A. NGUYEN, YOSHIO NISHIMOTO,
     BOSILJKA NJEGIC, RYAN OLSON, MIKE PAK, ROBERTO PEVERATI,
     BUU PHAM, PIOTR PIECUCH, ANNA POMOGAEVA, DAVID POOLE,
     SPENCER PRUITT, OLIVIER QUINET, LUKE ROSKOP,
     KLAUS RUEDENBERG, ANDREW SAND, TOSAPORN SATTASATHUCHANA,
     NOZOMI SAWADA, MICHAEL W. SCHMIDT, PATRICK E. SCHNEIDER,
     JUNJI SEINO, PRACHI SHARMA, JUN SHEN, JIM SHOEMAKER,
     YINAN SHU, DEJUN SI, JONATHAN SKONE, LYUDMILA SLIPCHENKO,
     TONY SMITH, JIE SONG, MARK SPACKMAN, CASPER STEINMANN,
     WALT STEVENS, PEIFENG SU, SHUJUN SU, CHET SWALINA,
     TETSUYA TAKETSUGU, ZHEN TAO, NANDUN THELLAMUREGE
     SEIKEN TOKURA, JACOPO TOMASI, TSUGUKI TOUMA, TAKAO TSUNEDA,
     HIROAKI UMEDA, JORGE LUIS GALVEZ VALLEJO, YALI WANG,
     SIMON WEBB, AARON WEST, THERESA L. WINDUS, MARTA WLOCH,
     PENG XU, KIYOSHI YAGI, SUSUMU YANAGISAWA, YANG YANG,
     SOOHAENG YOO, TAKESHI YOSHIKAWA, FEDERICO ZAHARIEV,
     TOBY ZENG

  WHO ARE SUPPORTED BY THEIR INSTITUTION/UNIVERSITY/COMPANY/GROUP
  (IN ALPHABETICAL ORDER):

     EP ANALYTICS, FACULTES UNIVERSITAIRES NOTRE-DAME DE LA PAIX,
     INSTITUTE FOR MOLECULAR SCIENCE, IOWA STATE UNIVERSITY,
     JACKSON STATE UNIVERSITY, JOHANNES KEPLER UNIVERSITY LINZ,
     KYUSHU UNIVERSITY, MICHIGAN STATE UNIVERSITY,
     MIE UNIVERSITY, MOSCOW STATE UNIVERSITY,
     N. COPERNICUS UNIVERSITY, NAGOYA UNIVERSITY,
     NANJING UNIVERSITY, NAT. INST. OF ADVANCED INDUSTRIAL
     SCIENCE AND TECHNOLOGY, NATIONAL INST. OF STANDARDS AND
     TECHNOLOGY, NESMEYANOV INSTITUTE OF ORGANOELEMENT COMPOUNDS
     OF RUSSIAN ACADEMY OF SCIENCES, OSAKA PREFECTURE UNIVERSITY,
     PENNSYLVANIA STATE UNIVERSITY, TOKYO INSTITUTE OF TECHNOLOGY,
     UNIVERSITY OF AARHUS, UNIVERSITY OF ALBERTA,
     UNIVERSITY OF CALIFORNIA AT SANTA BARBARA,
     UNIVERSITY OF COPENHAGEN, UNIVERSITY OF IOWA,
     UNIVERSITY OF MEMPHIS, UNIVERSITY OF MINNESOTA,
     UNIVERSITY OF NEBRASKA, UNIVERSITY OF NEW ENGLAND,
     UNIVERSITY OF NOTRE DAME, UNIVERSITY OF PISA,
     UNIVERSITY OF SILESIA, UNIVERSITY OF TOKYO,
     UNIVERSITY OF ZURICH, WASEDA UNIVERSITY, YALE UNIVERSITY

  GAMESS SOFTWARE MANAGEMENT TEAM FOR THIS RELEASE:
     MARK S. GORDON (TEAM LEAD),
     BRETT BODE (SENIOR ADVISOR),
     GIUSEPPE BARCA,
     COLLEEN BERTONI,
     KRISTOPHER KEIPERT (ADVISOR),
     SAROM S. LEANG (DEVELOPMENT LEAD),
     BUU PHAM,
     JORGE LUIS GALVEZ VALLEJO (WEBSITE ADMINISTRATOR),
     PENG XU

 EXECUTION OF GAMESS BEGUN 10:26:32 29-AUG-2025    

            ECHO OF THE FIRST FEW INPUT CARDS -
 INPUT CARD> $CONTRL ISPHER=1 $END                                                          
 INPUT CARD> $SYSTEM MWORDS=1000 $END                                                       
 INPUT CARD> $CONTRL MAXIT=200 SCFTYP=RHF NPRINT=3 RUNTYP=ENERGY $END                       
 INPUT CARD> $GUESS GUESS=HUCKEL $END                                                       
 INPUT CARD> $DATA                                                                          
 INPUT CARD> !   molecule                                                                   
 INPUT CARD> C1                                                                             
 INPUT CARD>HYDROGEN  1                                                                     
 INPUT CARD>S   2                                                                           
 INPUT CARD>1         0.5447178000E+01       0.1562849787E+00                               
 INPUT CARD>2         0.8245472400E+00       0.9046908767E+00                               
 INPUT CARD>S   1                                                                           
 INPUT CARD>1         0.1831915800E+00       1.0000000                                      
 INPUT CARD>                                                                                
 INPUT CARD>OXYGEN  8                                                                       
 INPUT CARD>S   6                                                                           
 INPUT CARD>1         0.5472270000E+04       0.1832168810E-02                               
 INPUT CARD>2         0.8178060000E+03       0.1410469084E-01                               
 INPUT CARD>3         0.1864460000E+03       0.6862615542E-01                               
 INPUT CARD>4         0.5302300000E+02       0.2293758510E+00                               
 INPUT CARD>5         0.1718000000E+02       0.4663986970E+00                               
 INPUT CARD>6         0.5911960000E+01       0.3641727634E+00                               
 INPUT CARD>L   2                                                                           
 INPUT CARD>1         0.7402940000E+01      -0.4044535832E+00       0.2445861070E+00        
 INPUT CARD>2         0.1576200000E+01       0.1221561761E+01       0.8539553735E+00        
 INPUT CARD>L   1                                                                           
 INPUT CARD>1         0.3736840000E+00       0.1000000000E+01       0.1000000000E+01        
 INPUT CARD>                                                                                
 INPUT CARD> $END                                                                           
 INPUT CARD> $FMO                                                                           
 INPUT CARD> NBODY=2, NFRAG=3, NLAYER=1                                                     
 INPUT CARD> indat(1)= 0                                                                    
 INPUT CARD>      1        -6    0                                                          
 INPUT CARD>      7        -9    0                                                          
 INPUT CARD>      10        -12    0                                                        
 INPUT CARD>                                                                                
 INPUT CARD> frgnam(1)=  001,002,003,                                                       
 INPUT CARD>    icharg(1)=0,0,0,                                                            
 INPUT CARD> $END                                                                           
 INPUT CARD> $FMOPRP                                                                        
 INPUT CARD>   IPIEDA=3, NPRINT=8, MAXIT=200                                                
 INPUT CARD> $END                                                                           
 INPUT CARD> $FMOXYZ                                                                        
 INPUT CARD>O 8 1.39868 -1.34774 -0.12067                                                   
 INPUT CARD>H 1 1.65578 -2.01444 0.52783                                                    
 INPUT CARD>H 1 0.43717 -1.49494 -0.27167                                                   
 INPUT CARD>O 8 1.31918 1.31006 0.57663                                                     
 INPUT CARD>H 1 1.47618 0.36556 0.34493                                                     
 INPUT CARD>H 1 1.99548 1.80066 0.09423                                                     
 INPUT CARD>O 8 -1.39872 1.34796 0.12003                                                    
 1000000000 WORDS OF MEMORY AVAILABLE


     RUN TITLE
     ---------
  !   molecule                                                                   

 THE POINT GROUP OF THE MOLECULE IS C1      
 THE ORDER OF THE PRINCIPAL AXIS IS     0

 ATOM   ATOMIC CHARGE
 HYDROGEN    1.0
 OXYGEN      8.0

     ATOMIC BASIS SET LIBRARY
     ----------------
 THE CONTRACTED PRIMITIVE FUNCTIONS HAVE BEEN UNNORMALIZED
 THE CONTRACTED BASIS FUNCTIONS ARE NOW NORMALIZED TO UNITY

  SHELL TYPE  PRIMITIVE        EXPONENT          CONTRACTION COEFFICIENT(S)

 HYDROGEN  

      1   S       1             5.4471780    0.156284978695
      1   S       2             0.8245472    0.904690876670

      2   S       3             0.1831916    1.000000000000

 OXYGEN    

      3   S       4          5472.2700000    0.001832168810
      3   S       5           817.8060000    0.014104690841
      3   S       6           186.4460000    0.068626155423
      3   S       7            53.0230000    0.229375851010
      3   S       8            17.1800000    0.466398697021
      3   S       9             5.9119600    0.364172763417

      4   L      10             7.4029400   -0.404453583354    0.244586106986
      4   L      11             1.5762000    1.221561761467    0.853955373453

      5   L      12             0.3736840    1.000000000000    1.000000000000

 TOTAL NUMBER OF BASIS SET SHELLS             =    5
 NUMBER OF CARTESIAN GAUSSIAN BASIS FUNCTIONS =   11

 SELECTED MURRAY-HANDY-LAMING RADIAL GRID

 LEGACY BECKE'S FUZZY CELL METHOD

 SELECTED ORIGINAL BECKE'S PARTITION FUNCTION

     $CONTRL OPTIONS
     ---------------
 SCFTYP=RHF          RUNTYP=ENERGY       EXETYP=RUN     
 MPLEVL=       0     CITYP =NONE         CCTYP =NONE         VBTYP =NONE    
 DFTTYP=NONE         TDDFT =NONE    
 MULT  =       1     ICHARG=       0     NZVAR =       0     COORD =UNIQUE  
 PP    =NONE         RELWFN=NONE         LOCAL =NONE         NUMGRD=       F
 ISPHER=       1     NOSYM =       0     MAXIT =     200     UNITS =ANGS    
 PLTORB=       F     MOLPLT=       F     AIMPAC=       F     FRIEND=        
 NPRINT=       3     IREST =       0     GEOM  =INPUT   
 NORMF =       0     NORMP =       0     ITOL  =      24     ICUT  =      12
 INTTYP=BEST         GRDTYP=BEST         QMTTOL= 1.0E-06

     $SYSTEM OPTIONS
     ---------------
  REPLICATED MEMORY=  1000000000 WORDS (ON EVERY NODE).
 DISTRIBUTED MEMDDI=           0 MILLION WORDS IN AGGREGATE,
 MEMDDI DISTRIBUTED OVER   1 PROCESSORS IS           0 WORDS/PROCESSOR.
 TOTAL MEMORY REQUESTED ON EACH PROCESSOR=  1000000000 WORDS.
 TIMLIM=      525600.00 MINUTES, OR     365.0 DAYS.
 PARALL= F  BALTYP=  DLB     KDIAG=    0  COREFL= F
 MXSEQ2=     300 MXSEQ3=     150  mem10=         0  mem22=         0

 Using Gaussians for PCM contribution to MEP, params: 0.10000E+01 0.10000E-07

          ----------------
          PROPERTIES INPUT
          ----------------

     MOMENTS            FIELD           POTENTIAL          DENSITY
 IEMOM =       1   IEFLD =       0   IEPOT =       0   IEDEN =       0
 WHERE =COMASS     WHERE =NUCLEI     WHERE =NUCLEI     WHERE =NUCLEI  
 OUTPUT=BOTH       OUTPUT=BOTH       OUTPUT=NONE       OUTPUT=BOTH    
 IEMINT=       0   IEFINT=       0                     IEDINT=       0
                                                       MORB  =       0
          EXTRAPOLATION IN EFFECT
          SOSCF IN EFFECT
 ORBITAL PRINTING OPTION: NPREO=     1 32767     2     1

     -------------------------------
     INTEGRAL TRANSFORMATION OPTIONS
     -------------------------------
     NWORD  =            0
     CUTOFF = 1.0E-10     MPTRAN =       0
     DIRTRF =       F     AOINTS =DUP     

          ----------------------
          INTEGRAL INPUT OPTIONS
          ----------------------
 NOPK  =       1 NORDER=       0 SCHWRZ=       T

 ..... DONE SETTING UP THE RUN .....
 STEP CPU TIME =     0.02 TOTAL CPU TIME =          0.0 (      0.0 MIN)
 TOTAL WALL CLOCK TIME=          0.0 SECONDS, CPU UTILIZATION IS    98.70%
 STEP CPU TIME =     0.00 TOTAL CPU TIME =          0.0 (      0.0 MIN)
 TOTAL WALL CLOCK TIME=          0.0 SECONDS, CPU UTILIZATION IS    98.70%

                    ----------------------
                    AO INTEGRAL TECHNOLOGY
                    ----------------------
     S,P,L SHELL ROTATED AXIS INTEGRALS, REPROGRAMMED BY
        KAZUYA ISHIMURA (IMS) AND JOSE SIERRA (SYNSTAR).
     S,P,D,L SHELL ROTATED AXIS INTEGRALS PROGRAMMED BY
        KAZUYA ISHIMURA (INSTITUTE FOR MOLECULAR SCIENCE).
     S,P,D,F,G SHELL TO TOTAL QUARTET ANGULAR MOMENTUM SUM 5,
        ERIC PROGRAM BY GRAHAM FLETCHER (ELORET AND NASA ADVANCED
        SUPERCOMPUTING DIVISION, AMES RESEARCH CENTER).
     S,P,D,F,G,L SHELL GENERAL RYS QUADRATURE PROGRAMMED BY
        MICHEL DUPUIS (PACIFIC NORTHWEST NATIONAL LABORATORY).
 Setting modorb=1 flag...
 Setting modorb=1 flag...
 STEP CPU TIME =     0.03 TOTAL CPU TIME =          0.1 (      0.0 MIN)
 TOTAL WALL CLOCK TIME=          0.1 SECONDS, CPU UTILIZATION IS    99.45%
 STEP CPU TIME =     0.00 TOTAL CPU TIME =          0.1 (      0.0 MIN)
 TOTAL WALL CLOCK TIME=          0.1 SECONDS, CPU UTILIZATION IS    99.45%
 Initialising fragments
 STEP CPU TIME =     0.00 TOTAL CPU TIME =          0.1 (      0.0 MIN)
 TOTAL WALL CLOCK TIME=          0.1 SECONDS, CPU UTILIZATION IS    99.45%
 STEP CPU TIME =     0.00 TOTAL CPU TIME =          0.1 (      0.0 MIN)
 TOTAL WALL CLOCK TIME=          0.1 SECONDS, CPU UTILIZATION IS    99.45%
 OPENING FILE SOCCDAT WITH      13 LOGICAL RECORDS OF     676 WORDS
 WITH A MAXIMUM OF          13 PHYSICAL RECORDS OF    2048 WORDS

 -----------------------------------------------------------------------
                  The Fragment Molecular Orbital (FMO) method.
                         Version 5.4
          coded by D. G. Fedorov under the guidance of K. Kitaura,
    with contributions from N. Asada, K. R. Brorsen, M. Chiba, C. Choi,
 D. S. Kaliakin, N. Minezawa, V. Mironov, T. Nagata, H. Nakata, Y. Nishimoto,
               S. R. Pruitt, C. Steinmann, and F. Zahariev.
       All publications using the FMO method in GAMESS should cite:
          D. G. Fedorov, K. Kitaura, J. Chem. Phys. 120, 6832 (2004).
 -----------------------------------------------------------------------

 Used memory (words):        28202
 Number of fragments:      3
 Number of layers:         1
 N-body FMO method:        2
 Number of atoms:         12
 Total charge:             0
 Total spin multiplicity:  1
 Number of basis sets:     1
 Number of LMO types:      0
 Number of boundaries:     0
 MonomerSCF convergence:   0.1000E-06
 Max monomerSCF iter:    200
 MonomerSCF criterion:     internal
 Max AOs per n-mer:       26       39
 Layer electron correlation information
     nbody=  2
    SCFTYP=RHF     
    MPLEVL=  0
    DFTTYP=NONE    
     CITYP=NONE    
     CCTYP=NONE    
     TDDFT=NONE    
 FMO method: FMO2-RHF

 FMO approximations.
    Using point charge approximation for the 2e ESP with the VdW factor   2.00
    Using ES-dimer approximation with the VdW factor   2.00
    The uniform distances will be used in ESPs.
    Van der Waals radii in Angstrom are:
       R(O  )=  1.4000
       R(H  )=  1.2000

 FMO initial guess options.
    Using monomer density to form dimer guess.

 FMO extensions.

 FMO automation options.

 FMO SCF converger options.
    SCF convergers:
     65     65     65     65     65     65     65     65     65     65
    Fragment orbitals will be exchanged.

 FMO parallelisation options.
    Smart parallel load balancing: large jobs first.
    ESPs will be shell parallelised.
    Broadcast all fragments at once.
    Do the fragment initialisation in the reverse order.

 FMO properties and print-out level.
    Interfragment CT method:    4
    Voluminous print-out level.
    Atomic charges will be printed.

 Array dimensions maxbnd,maxknd,maxcbs,maxcao,maxbbd are:
                       7     10      9      5      9

 --------------------------------------------------




 Starting layer 1 nbody=2
 SCFTYP=RHF     MPLEVL=0 DFTTYP=NONE     CITYP=NONE    CCTYP=NONE    TDDFT=NONE    



 Running initial guess for monomer       3


          ********************
          1 ELECTRON INTEGRALS
          ********************
 OVERLAP MATRIX

                      1          2          3          4          5

    1  O  1  S    1.000000
    2  O  1  S    0.256260   1.000000
    3  O  1  X   -0.000000   0.000000   1.000000
    4  O  1  Y   -0.000000   0.000000   0.000000   1.000000
    5  O  1  Z   -0.000000   0.000000   0.000000   0.000000   1.000000
    6  O  1  S    0.208361   0.740016  -0.000000  -0.000000   0.000000
    7  O  1  X    0.000000   0.000000   0.498767   0.000000   0.000000
    8  O  1  Y    0.000000   0.000000   0.000000   0.498767   0.000000
    9  O  1  Z    0.000000   0.000000   0.000000   0.000000   0.498767
   10  H  2  S    0.023423   0.145830  -0.030144   0.181458   0.044457
   11  H  2  S    0.067750   0.293220  -0.018769   0.112986   0.027681
   12  H  3  S    0.026025   0.157165  -0.140689  -0.102083   0.100543
   13  H  3  S    0.069476   0.299973  -0.082758  -0.060049   0.059143

                      6          7          8          9         10

    6  O  1  S    1.000000
    7  O  1  X    0.000000   1.000000
    8  O  1  Y    0.000000   0.000000   1.000000
    9  O  1  Z    0.000000   0.000000   0.000000   1.000000
   10  H  2  S    0.346975  -0.087986   0.529653   0.129764   1.000000
   11  H  2  S    0.594962  -0.070948   0.427090   0.104636   0.645898
   12  H  3  S    0.359939  -0.393328  -0.285396   0.281090   0.024531
   13  H  3  S    0.605314  -0.310997  -0.225657   0.222252   0.177603

                     11         12         13

   11  H  2  S    1.000000
   12  H  3  S    0.177603   1.000000
   13  H  3  S    0.457296   0.645898   1.000000
 BARE NUCLEUS HAMILTONIAN INTEGRALS (H=T+V)

                      1          2          3          4          5

    1  O  1  S  -33.031437
    2  O  1  S   -8.086049 -10.157133
    3  O  1  X    0.020751   0.109172  -8.706968
    4  O  1  Y   -0.010010  -0.052665  -0.013608  -8.745891
    5  O  1  Z   -0.017655  -0.092882   0.024706   0.002738  -8.693389
    6  O  1  S   -6.709966  -8.056717   0.104284  -0.050407  -0.088735
    7  O  1  X    0.003651   0.066071  -4.208263  -0.012526   0.022821
    8  O  1  Y   -0.001761  -0.031943  -0.012526  -4.244424   0.002472
    9  O  1  Z   -0.003106  -0.056220   0.022821   0.002472  -4.195732
   10  H  2  S   -0.761775  -1.599414   0.282988  -1.645316  -0.410799
   11  H  2  S   -2.187792  -3.195988   0.206528  -1.020590  -0.279500
   12  H  3  S   -0.845941  -1.724487   1.281984   0.916210  -0.917740
   13  H  3  S   -2.243490  -3.270237   0.775166   0.512478  -0.559601

                      6          7          8          9         10

    6  O  1  S   -8.302633
    7  O  1  X    0.173990  -5.248370
    8  O  1  Y   -0.087031  -0.039658  -5.372195
    9  O  1  Z   -0.148376   0.074461   0.006461  -5.207837
   10  H  2  S   -2.476894   0.509966  -2.974508  -0.741363  -4.808962
   11  H  2  S   -4.254843   0.444529  -2.160455  -0.597507  -3.464796
   12  H  3  S   -2.597536   2.235151   1.599258  -1.599880  -0.243365
   13  H  3  S   -4.336745   1.634900   1.068123  -1.181688  -1.181854

                     11         12         13

   11  H  2  S   -4.566610
   12  H  3  S   -1.197627  -4.897934
   13  H  3  S   -2.595986  -3.518525  -4.613494
 KINETIC ENERGY INTEGRALS

                      1          2          3          4          5

    1  O  1  S   29.611820
    2  O  1  S   -2.598459   2.787882
    3  O  1  X    0.000000   0.000000   5.351306
    4  O  1  Y    0.000000   0.000000   0.000000   5.351306
    5  O  1  Z    0.000000   0.000000   0.000000   0.000000   5.351306
    6  O  1  S    0.223837   0.652395  -0.000000  -0.000000   0.000000
    7  O  1  X    0.000000  -0.000000   0.761164  -0.000000  -0.000000
    8  O  1  Y    0.000000  -0.000000  -0.000000   0.761164  -0.000000
    9  O  1  Z   -0.000000  -0.000000  -0.000000  -0.000000   0.761164
   10  H  2  S   -0.038973  -0.057080  -0.015174   0.091344   0.022379
   11  H  2  S    0.021348   0.089301  -0.011932   0.071828   0.017598
   12  H  3  S   -0.039257  -0.049719  -0.082270  -0.059694   0.058794
   13  H  3  S    0.022519   0.093570  -0.053243  -0.038633   0.038050

                      6          7          8          9         10

    6  O  1  S    0.560526
    7  O  1  X    0.000000   0.934210
    8  O  1  Y   -0.000000   0.000000   0.934210
    9  O  1  Z    0.000000   0.000000   0.000000   0.934210
   10  H  2  S    0.106900  -0.073208   0.440695   0.107969   1.549405
   11  H  2  S    0.157111  -0.036178   0.217784   0.053357   0.293151
   12  H  3  S    0.117815  -0.334974  -0.243054   0.239387  -0.042606
   13  H  3  S    0.162412  -0.159904  -0.116025   0.114275   0.011178

                     11         12         13

   11  H  2  S    0.274787
   12  H  3  S    0.011178   1.549405
   13  H  3  S    0.060113   0.293151   0.274787
 ...... END OF ONE-ELECTRON INTEGRALS ......
 STEP CPU TIME =     0.01 TOTAL CPU TIME =          0.1 (      0.0 MIN)
 TOTAL WALL CLOCK TIME=          0.1 SECONDS, CPU UTILIZATION IS    99.53%

          -------------
          GUESS OPTIONS
          -------------
          GUESS =HUCKEL            NORB  =       0          NORDER=       0
          MIX   =       F          PRTMO =       F          PUNMO =       F
          TOLZ  = 1.0E-08          TOLE  = 1.0E-05
          SYMDEN=       F          PURIFY=       F

 INITIAL GUESS ORBITALS GENERATED BY HUCKEL   ROUTINE.
 HUCKEL GUESS REQUIRES      3586 WORDS.

 SYMMETRIES FOR INITIAL GUESS ORBITALS FOLLOW.   BOTH SET(S).
     5 ORBITALS ARE OCCUPIED (    1 CORE ORBITALS).
     2=A        3=A        4=A        5=A        6=A        7=A        8=A   
     9=A       10=A       11=A       12=A       13=A   
 ...... END OF INITIAL ORBITAL SELECTION ......
 STEP CPU TIME =     0.00 TOTAL CPU TIME =          0.1 (      0.0 MIN)
 TOTAL WALL CLOCK TIME=          0.1 SECONDS, CPU UTILIZATION IS    99.54%

 Running initial guess for monomer       2


          ********************
          1 ELECTRON INTEGRALS
          ********************
 OVERLAP MATRIX

                      1          2          3          4          5

    1  O  1  S    1.000000
    2  O  1  S    0.256260   1.000000
    3  O  1  X    0.000000   0.000000   1.000000
    4  O  1  Y    0.000000   0.000000   0.000000   1.000000
    5  O  1  Z    0.000000  -0.000000   0.000000   0.000000   1.000000
    6  O  1  S    0.208361   0.740016   0.000000   0.000000   0.000000
    7  O  1  X    0.000000   0.000000   0.498767   0.000000   0.000000
    8  O  1  Y    0.000000   0.000000   0.000000   0.498767   0.000000
    9  O  1  Z    0.000000  -0.000000   0.000000   0.000000   0.498767
   10  H  2  S    0.023497   0.146155   0.185164   0.028348   0.029156
   11  H  2  S    0.067801   0.293419   0.115099   0.017621   0.018124
   12  H  3  S    0.026022   0.157151  -0.053399   0.138637  -0.135078
   13  H  3  S    0.069474   0.299965  -0.031413   0.081556  -0.079463

                      6          7          8          9         10

    6  O  1  S    1.000000
    7  O  1  X    0.000000   1.000000
    8  O  1  Y    0.000000   0.000000   1.000000
    9  O  1  Z    0.000000   0.000000   0.000000   1.000000
   10  H  2  S    0.347355   0.539779   0.082637   0.084995   1.000000
   11  H  2  S    0.595269   0.435001   0.066596   0.068496   0.645898
   12  H  3  S    0.359924  -0.149296   0.387610  -0.377661   0.024463
   13  H  3  S    0.605302  -0.118048   0.306482  -0.298615   0.177422

                     11         12         13

   11  H  2  S    1.000000
   12  H  3  S    0.177422   1.000000
   13  H  3  S    0.457014   0.645898   1.000000
 BARE NUCLEUS HAMILTONIAN INTEGRALS (H=T+V)

                      1          2          3          4          5

    1  O  1  S  -33.031749
    2  O  1  S   -8.086129 -10.157444
    3  O  1  X   -0.016348  -0.086012  -8.736335
    4  O  1  Y   -0.020280  -0.106691   0.002948  -8.706158
    5  O  1  Z    0.012764   0.067149  -0.020507   0.028343  -8.704689
    6  O  1  S   -6.710031  -8.056946  -0.082255  -0.101913   0.064114
    7  O  1  X   -0.002877  -0.052120  -4.235470   0.002687  -0.018971
    8  O  1  Y   -0.003568  -0.064569   0.002687  -4.207381   0.026164
    9  O  1  Z    0.002246   0.040619  -0.018971   0.026164  -4.206026
   10  H  2  S   -0.764164  -1.603002  -1.682008  -0.266522  -0.257074
   11  H  2  S   -2.189452  -3.198233  -1.051667  -0.195460  -0.135869
   12  H  3  S   -0.845845  -1.724338   0.473083  -1.263189   1.226869
   13  H  3  S   -2.243445  -3.270209   0.245968  -0.763577   0.730038

                      6          7          8          9         10

    6  O  1  S   -8.302895
    7  O  1  X   -0.139974  -5.342894
    8  O  1  Y   -0.170003   0.007743  -5.245236
    9  O  1  Z    0.106149  -0.062703   0.084916  -5.240838
   10  H  2  S   -2.480357  -3.037031  -0.479702  -0.465492  -4.811404
   11  H  2  S   -4.257273  -2.228113  -0.420847  -0.282047  -3.466271
   12  H  3  S   -2.597354   0.826639  -2.202442   2.139634  -0.242917
   13  H  3  S   -4.336663   0.506575  -1.610340   1.536090  -1.181414

                     11         12         13

   11  H  2  S   -4.567869
   12  H  3  S   -1.196704  -4.897694
   13  H  3  S   -2.595216  -3.518374  -4.613319
 KINETIC ENERGY INTEGRALS

                      1          2          3          4          5

    1  O  1  S   29.611820
    2  O  1  S   -2.598459   2.787882
    3  O  1  X    0.000000   0.000000   5.351306
    4  O  1  Y   -0.000000   0.000000   0.000000   5.351306
    5  O  1  Z   -0.000000  -0.000000  -0.000000   0.000000   5.351306
    6  O  1  S    0.223837   0.652395   0.000000   0.000000   0.000000
    7  O  1  X   -0.000000  -0.000000   0.761164   0.000000   0.000000
    8  O  1  Y   -0.000000   0.000000   0.000000   0.761164   0.000000
    9  O  1  Z    0.000000  -0.000000   0.000000   0.000000   0.761164
   10  H  2  S   -0.038986  -0.056880   0.093658   0.014338   0.014748
   11  H  2  S    0.021382   0.089426   0.073198   0.011206   0.011526
   12  H  3  S   -0.039257  -0.049728  -0.031221   0.081057  -0.078976
   13  H  3  S    0.022517   0.093565  -0.020209   0.052469  -0.051122

                      6          7          8          9         10

    6  O  1  S    0.560526
    7  O  1  X    0.000000   0.934210
    8  O  1  Y   -0.000000   0.000000   0.934210
    9  O  1  Z   -0.000000   0.000000   0.000000   0.934210
   10  H  2  S    0.107216   0.449436   0.068806   0.070769   1.549405
   11  H  2  S    0.157267   0.221873   0.033968   0.034937   0.293151
   12  H  3  S    0.117802  -0.127143   0.330095  -0.321622  -0.042541
   13  H  3  S    0.162405  -0.060696   0.157581  -0.153536   0.011113

                     11         12         13

   11  H  2  S    0.274787
   12  H  3  S    0.011113   1.549405
   13  H  3  S    0.060025   0.293151   0.274787
 ...... END OF ONE-ELECTRON INTEGRALS ......
 STEP CPU TIME =     0.01 TOTAL CPU TIME =          0.1 (      0.0 MIN)
 TOTAL WALL CLOCK TIME=          0.1 SECONDS, CPU UTILIZATION IS    99.58%

          -------------
          GUESS OPTIONS
          -------------
          GUESS =HUCKEL            NORB  =       0          NORDER=       0
          MIX   =       F          PRTMO =       F          PUNMO =       F
          TOLZ  = 1.0E-08          TOLE  = 1.0E-05
          SYMDEN=       F          PURIFY=       F

 INITIAL GUESS ORBITALS GENERATED BY HUCKEL   ROUTINE.
 HUCKEL GUESS REQUIRES      3586 WORDS.

 SYMMETRIES FOR INITIAL GUESS ORBITALS FOLLOW.   BOTH SET(S).
     5 ORBITALS ARE OCCUPIED (    1 CORE ORBITALS).
     2=A        3=A        4=A        5=A        6=A        7=A        8=A   
     9=A       10=A       11=A       12=A       13=A   
 ...... END OF INITIAL ORBITAL SELECTION ......
 STEP CPU TIME =     0.00 TOTAL CPU TIME =          0.1 (      0.0 MIN)
 TOTAL WALL CLOCK TIME=          0.1 SECONDS, CPU UTILIZATION IS    99.59%

 Running initial guess for monomer       1


          ********************
          1 ELECTRON INTEGRALS
          ********************
 OVERLAP MATRIX

                      1          2          3          4          5

    1  O  1  S    1.000000
    2  O  1  S    0.256260   1.000000
    3  O  1  X    0.000000   0.000000   1.000000
    4  O  1  Y   -0.000000  -0.000000   0.000000   1.000000
    5  O  1  Z   -0.000000  -0.000000  -0.000000   0.000000   1.000000
    6  O  1  S    0.208361   0.740016   0.000000   0.000000   0.000000
    7  O  1  X   -0.000000   0.000000   0.498767   0.000000   0.000000
    8  O  1  Y    0.000000   0.000000   0.000000   0.498767   0.000000
    9  O  1  Z    0.000000   0.000000   0.000000   0.000000   0.498767
   10  H  2  S    0.026011   0.157108   0.053487  -0.138700   0.134914
   11  H  2  S    0.069468   0.299940   0.031472  -0.081611   0.079383
   12  H  3  S    0.023503   0.146184  -0.185204  -0.028353  -0.029085
   13  H  3  S    0.067806   0.293436  -0.115107  -0.017622  -0.018077
   14  O  4  S    0.000000   0.000000  -0.000000   0.000000   0.000000
   15  O  4  S    0.000000   0.000000  -0.000000   0.000000   0.000000
   16  O  4  X    0.000000   0.000000   0.000000   0.000000   0.000000
   17  O  4  Y   -0.000000  -0.000000   0.000000  -0.000000  -0.000000
   18  O  4  Z   -0.000000  -0.000000   0.000000  -0.000000  -0.000000
   19  O  4  S    0.000014   0.000238  -0.000013   0.000422   0.000111
   20  O  4  X    0.000002   0.000035   0.000136   0.000063   0.000016
   21  O  4  Y   -0.000079  -0.001176   0.000063  -0.001962  -0.000551
   22  O  4  Z   -0.000021  -0.000309   0.000016  -0.000551  -0.000007
   23  H  5  S    0.000069   0.002242   0.000203   0.004497   0.001222
   24  H  5  S    0.016694   0.082450   0.002559   0.056568   0.015373
   25  H  6  S    0.000000   0.000000   0.000000   0.000000   0.000000
   26  H  6  S    0.000171   0.001287   0.000293   0.001547   0.000106

                      6          7          8          9         10

    6  O  1  S    1.000000
    7  O  1  X    0.000000   1.000000
    8  O  1  Y    0.000000   0.000000   1.000000
    9  O  1  Z   -0.000000   0.000000   0.000000   1.000000
   10  H  2  S    0.359876   0.149566  -0.387848   0.377260   1.000000
   11  H  2  S    0.605263   0.118270  -0.306693   0.298320   0.645898
   12  H  3  S    0.347388  -0.539836  -0.082645  -0.084778   0.024457
   13  H  3  S    0.595295  -0.435025  -0.066599  -0.068318   0.177407
   14  O  4  S    0.000014  -0.000002   0.000079   0.000021   0.000000
   15  O  4  S    0.000238  -0.000035   0.001176   0.000309   0.000000
   16  O  4  X    0.000013   0.000136   0.000063   0.000016   0.000000
   17  O  4  Y   -0.000422   0.000063  -0.001962  -0.000551  -0.000000
   18  O  4  Z   -0.000111   0.000016  -0.000551  -0.000007  -0.000000
   19  O  4  S    0.006462  -0.000593   0.019839   0.005205   0.000028
   20  O  4  X    0.000593   0.006407   0.001822   0.000478   0.000015
   21  O  4  Y   -0.019839   0.001822  -0.054450  -0.015981  -0.000150
   22  O  4  Z   -0.005205   0.000478  -0.015981   0.002269  -0.000002
   23  H  5  S    0.045428   0.005643   0.124759   0.033904   0.000178
   24  H  5  S    0.227699   0.013412   0.296499   0.080575   0.029410
   25  H  6  S    0.000062   0.000059   0.000312   0.000021   0.000000
   26  H  6  S    0.009839   0.004463   0.023544   0.001607   0.000218

                     11         12         13         14         15

   11  H  2  S    1.000000
   12  H  3  S    0.177407   1.000000
   13  H  3  S    0.456990   0.645898   1.000000
   14  O  4  S    0.000099   0.000000   0.000314   1.000000
   15  O  4  S    0.000783   0.000000   0.002236   0.256260   1.000000
   16  O  4  X    0.000100  -0.000000  -0.000757   0.000000   0.000000
   17  O  4  Y   -0.000990  -0.000000  -0.002408  -0.000000  -0.000000
   18  O  4  Z   -0.000015  -0.000000  -0.000728  -0.000000  -0.000000
   19  O  4  S    0.006766   0.000149   0.014926   0.208361   0.740016
   20  O  4  X    0.001731  -0.000209  -0.010005   0.000000   0.000000
   21  O  4  Y   -0.017095  -0.000665  -0.031819  -0.000000  -0.000000
   22  O  4  Z   -0.000251  -0.000201  -0.009623  -0.000000   0.000000
   23  H  5  S    0.029410   0.000585   0.045458   0.023412   0.145782
   24  H  5  S    0.153464   0.045458   0.199948   0.067743   0.293191
   25  H  6  S    0.000218   0.000000   0.000471   0.026037   0.157216
   26  H  6  S    0.007750   0.000471   0.012393   0.069484   0.300002

                     16         17         18         19         20

   16  O  4  X    1.000000
   17  O  4  Y    0.000000   1.000000
   18  O  4  Z    0.000000   0.000000   1.000000
   19  O  4  S    0.000000  -0.000000   0.000000   1.000000
   20  O  4  X    0.498767   0.000000   0.000000   0.000000   1.000000
   21  O  4  Y    0.000000   0.498767   0.000000   0.000000   0.000000
   22  O  4  Z    0.000000   0.000000   0.498767   0.000000   0.000000
   23  H  5  S    0.030152  -0.181395  -0.044499   0.346920   0.088028
   24  H  5  S    0.018779  -0.112975  -0.027714   0.594918   0.070988
   25  H  6  S    0.140801   0.102140  -0.100432   0.359997   0.393566
   26  H  6  S    0.082803   0.060067  -0.059063   0.605359   0.311158

                     21         22         23         24         25

   21  O  4  Y    1.000000
   22  O  4  Z    0.000000   1.000000
   23  H  5  S   -0.529568  -0.129911   1.000000
   24  H  5  S   -0.427059  -0.104764   0.645898   1.000000
   25  H  6  S    0.285500  -0.280728   0.024532   0.177604   1.000000
   26  H  6  S    0.225720  -0.221947   0.177604   0.457297   0.645898

                     26

   26  H  6  S    1.000000
 BARE NUCLEUS HAMILTONIAN INTEGRALS (H=T+V)

                      1          2          3          4          5

    1  O  1  S  -35.034313
    2  O  1  S   -8.599307 -12.160009
    3  O  1  X    0.016314   0.085831 -10.727648
    4  O  1  Y   -0.011942  -0.062844   0.002845 -10.729289
    5  O  1  Z   -0.020857  -0.109733  -0.020469   0.020191 -10.697939
    6  O  1  S   -7.127288  -9.538876   0.082081  -0.060708  -0.104962
    7  O  1  X    0.002871   0.052009  -5.223653   0.002589  -0.018935
    8  O  1  Y   -0.002101  -0.038506   0.002589  -5.225623   0.018464
    9  O  1  Z   -0.003670  -0.066510  -0.018935   0.018464  -5.196040
   10  H  2  S   -0.896712  -2.015870  -0.573110   1.499948  -1.480941
   11  H  2  S   -2.381790  -3.857470  -0.307649   0.856114  -0.900117
   12  H  3  S   -0.811110  -1.886058   2.038569   0.299295   0.306886
   13  H  3  S   -2.325173  -3.780882   1.277731   0.162817   0.154051
   14  O  4  S    0.000000  -0.000000   0.000000  -0.000000  -0.000000
   15  O  4  S   -0.000000  -0.000000   0.000000  -0.000000  -0.000000
   16  O  4  X   -0.000000  -0.000000  -0.000000  -0.000000  -0.000000
   17  O  4  Y    0.000000   0.000000  -0.000000   0.000001   0.000000
   18  O  4  Z    0.000000   0.000000  -0.000000   0.000000   0.000000
   19  O  4  S   -0.000479  -0.003464   0.000178  -0.005558  -0.001467
   20  O  4  X   -0.000083  -0.000491  -0.001765  -0.000791  -0.000210
   21  O  4  Y    0.002791   0.016672  -0.000864   0.024983   0.007070
   22  O  4  Z    0.000732   0.004368  -0.000228   0.007016   0.000066
   23  H  5  S   -0.002509  -0.033562  -0.002615  -0.060383  -0.016461
   24  H  5  S   -0.573613  -1.069110  -0.019323  -0.629406  -0.178494
   25  H  6  S   -0.000000  -0.000000  -0.000000  -0.000000  -0.000000
   26  H  6  S   -0.005920  -0.017137  -0.003290  -0.018199  -0.001385

                      6          7          8          9         10

    6  O  1  S  -10.305451
    7  O  1  X    0.139628  -7.287219
    8  O  1  Y   -0.155999   0.007176  -7.353813
    9  O  1  Z   -0.188061  -0.062534   0.042888  -7.195402
   10  H  2  S   -3.220920  -1.083948   2.821622  -2.793994  -6.522480
   11  H  2  S   -5.471558  -0.721996   1.950679  -2.129308  -4.567836
   12  H  3  S   -3.123841   4.021875   0.577011   0.605450  -0.285622
   13  H  3  S   -5.414192   3.042625   0.308817   0.349538  -1.494122
   14  O  4  S   -0.000478   0.000083  -0.002787  -0.000731  -0.000000
   15  O  4  S   -0.003560   0.000488  -0.017095  -0.004481  -0.000000
   16  O  4  X   -0.000207  -0.001789  -0.000993  -0.000259  -0.000000
   17  O  4  Y    0.005799  -0.000785   0.026028   0.007302   0.000000
   18  O  4  Z    0.001527  -0.000205   0.007339   0.000112   0.000000
   19  O  4  S   -0.059078   0.004818  -0.175048  -0.045975  -0.000373
   20  O  4  X   -0.005590  -0.050650  -0.016675  -0.004384  -0.000181
   21  O  4  Y    0.172892  -0.014108   0.448808   0.131382   0.001913
   22  O  4  Z    0.045310  -0.003702   0.131077  -0.016519   0.000068
   23  H  5  S   -0.395513  -0.042812  -1.021727  -0.277477  -0.002575
   24  H  5  S   -2.014270  -0.067891  -2.210648  -0.615655  -0.275664
   25  H  6  S   -0.000774  -0.000650  -0.003747  -0.000312  -0.000000
   26  H  6  S   -0.083257  -0.031331  -0.185111  -0.016286  -0.002410

                     11         12         13         14         15

   11  H  2  S   -6.238244
   12  H  3  S   -1.496071  -6.577918
   13  H  3  S   -3.394175  -4.607250  -6.334200
   14  O  4  S   -0.003425  -0.000000  -0.010828 -34.902746
   15  O  4  S   -0.010623  -0.000000  -0.029869  -8.565591 -12.028442
   16  O  4  X   -0.001286   0.000000   0.008397  -0.020966  -0.110300
   17  O  4  Y    0.012113   0.000001   0.028910   0.037399   0.196776
   18  O  4  Z    0.000345   0.000000   0.008806   0.024424   0.128501
   19  O  4  S   -0.058503  -0.001686  -0.126858  -7.099875  -9.441515
   20  O  4  X   -0.013549   0.002133   0.068457  -0.003689  -0.066756
   21  O  4  Y    0.137221   0.007284   0.249090   0.006581   0.119561
   22  O  4  Z    0.005437   0.002182   0.074552   0.004298   0.077876
   23  H  5  S   -0.245969  -0.007590  -0.378931  -0.806649  -1.911384
   24  H  5  S   -1.184089  -0.402317  -1.508013  -2.315255  -3.766642
   25  H  6  S   -0.002310  -0.000000  -0.005081  -0.894486  -2.004358
   26  H  6  S   -0.059937  -0.004748  -0.096225  -2.373414  -3.823694

                     16         17         18         19         20

   16  O  4  X  -10.569951
   17  O  4  Y   -0.013387 -10.632547
   18  O  4  Z    0.024702  -0.003254 -10.557675
   19  O  4  S   -0.105365   0.188642   0.122901 -10.173940
   20  O  4  X   -5.133742  -0.012317   0.022817  -0.176125  -7.076532
   21  O  4  Y   -0.012317  -5.192270  -0.003189   0.364225  -0.038450
   22  O  4  Z    0.022817  -0.003189  -5.122445   0.216890   0.074446
   23  H  5  S   -0.346835   2.056321   0.512229  -3.330373  -0.723471
   24  H  5  S   -0.243158   1.302244   0.349049  -5.509285  -0.591215
   25  H  6  S   -1.532647  -1.078504   1.099440  -3.204784  -2.892228
   26  H  6  S   -0.927545  -0.564906   0.681209  -5.419572  -2.177646

                     21         22         23         24         25

   21  O  4  Y   -7.322874
   22  O  4  Z   -0.024476  -7.042914
   23  H  5  S    4.379084   1.087410  -7.650363
   24  H  5  S    3.342135   0.888973  -5.300064  -7.398450
   25  H  6  S   -2.031208   2.076137  -0.293916  -1.506278  -6.498193
   26  H  6  S   -1.263744   1.614094  -1.628396  -3.537676  -4.552111

                     26

   26  H  6  S   -6.213560
 KINETIC ENERGY INTEGRALS

                      1          2          3          4          5

    1  O  1  S   29.611820
    2  O  1  S   -2.598459   2.787882
    3  O  1  X   -0.000000   0.000000   5.351306
    4  O  1  Y   -0.000000  -0.000000   0.000000   5.351306
    5  O  1  Z    0.000000  -0.000000   0.000000  -0.000000   5.351306
    6  O  1  S    0.223837   0.652395   0.000000   0.000000   0.000000
    7  O  1  X   -0.000000   0.000000   0.761164   0.000000   0.000000
    8  O  1  Y   -0.000000   0.000000   0.000000   0.761164   0.000000
    9  O  1  Z    0.000000   0.000000   0.000000   0.000000   0.761164
   10  H  2  S   -0.039257  -0.049758   0.031256  -0.081052   0.078839
   11  H  2  S    0.022513   0.093549   0.020246  -0.052502   0.051068
   12  H  3  S   -0.038987  -0.056862  -0.093717  -0.014347  -0.014718
   13  H  3  S    0.021385   0.089437  -0.073205  -0.011207  -0.011496
   14  O  4  S    0.000000  -0.000000   0.000000  -0.000000  -0.000000
   15  O  4  S   -0.000000  -0.000000   0.000000  -0.000000  -0.000000
   16  O  4  X   -0.000000  -0.000000  -0.000000  -0.000000  -0.000000
   17  O  4  Y    0.000000   0.000000  -0.000000   0.000000   0.000000
   18  O  4  Z    0.000000   0.000000  -0.000000   0.000000   0.000000
   19  O  4  S   -0.000078  -0.000944   0.000043  -0.001450  -0.000380
   20  O  4  X   -0.000012  -0.000118  -0.000467  -0.000178  -0.000047
   21  O  4  Y    0.000403   0.003943  -0.000178   0.005480   0.001562
   22  O  4  Z    0.000106   0.001035  -0.000047   0.001562  -0.000063
   23  H  5  S   -0.000704  -0.010979  -0.000804  -0.017771  -0.004829
   24  H  5  S   -0.003125  -0.008862   0.000541   0.011957   0.003249
   25  H  6  S   -0.000000  -0.000000  -0.000000  -0.000000  -0.000000
   26  H  6  S   -0.000313  -0.001889  -0.000344  -0.001814  -0.000124

                      6          7          8          9         10

    6  O  1  S    0.560526
    7  O  1  X    0.000000   0.934210
    8  O  1  Y   -0.000000   0.000000   0.934210
    9  O  1  Z   -0.000000  -0.000000   0.000000   0.934210
   10  H  2  S    0.117760   0.127362  -0.330270   0.321254   1.549405
   11  H  2  S    0.162386   0.060808  -0.157685   0.153380   0.293151
   12  H  3  S    0.107243  -0.449511  -0.068817  -0.070593  -0.042535
   13  H  3  S    0.157281  -0.221890  -0.033970  -0.034847   0.011107
   14  O  4  S   -0.000078   0.000012  -0.000403  -0.000106  -0.000000
   15  O  4  S   -0.000944   0.000118  -0.003943  -0.001035  -0.000000
   16  O  4  X   -0.000043  -0.000467  -0.000178  -0.000047  -0.000000
   17  O  4  Y    0.001450  -0.000178   0.005480   0.001562   0.000000
   18  O  4  Z    0.000380  -0.000047   0.001562  -0.000063   0.000000
   19  O  4  S   -0.008552   0.000564  -0.018844  -0.004944  -0.000128
   20  O  4  X   -0.000564  -0.006106  -0.001050  -0.000275  -0.000061
   21  O  4  Y    0.018844  -0.001050   0.028957   0.009208   0.000601
   22  O  4  Z    0.004944  -0.000275   0.009208  -0.003722   0.000009
   23  H  5  S   -0.033739  -0.001301  -0.028767  -0.007818  -0.001016
   24  H  5  S    0.006360   0.003672   0.081177   0.022060  -0.014066
   25  H  6  S   -0.000256  -0.000213  -0.001122  -0.000077  -0.000000
   26  H  6  S   -0.007325  -0.002225  -0.011739  -0.000801  -0.000424

                     11         12         13         14         15

   11  H  2  S    0.274787
   12  H  3  S    0.011107   1.549405
   13  H  3  S    0.060017   0.293151   0.274787
   14  O  4  S   -0.000201  -0.000000  -0.000506  29.611820
   15  O  4  S   -0.001277  -0.000000  -0.002876  -2.598459   2.787882
   16  O  4  X   -0.000134   0.000000   0.000749  -0.000000   0.000000
   17  O  4  Y    0.001323   0.000001   0.002382   0.000000   0.000000
   18  O  4  Z    0.000019   0.000000   0.000720   0.000000  -0.000000
   19  O  4  S   -0.005660  -0.000545  -0.009582   0.223837   0.652395
   20  O  4  X   -0.001022   0.000659   0.003964   0.000000   0.000000
   21  O  4  Y    0.010098   0.002095   0.012606   0.000000   0.000000
   22  O  4  Z    0.000148   0.000634   0.003812   0.000000   0.000000
   23  H  5  S   -0.014066  -0.002775  -0.015796  -0.038971  -0.057109
   24  H  5  S   -0.010522  -0.015796  -0.004018   0.021343   0.089283
   25  H  6  S   -0.000424  -0.000000  -0.000808  -0.039258  -0.049684
   26  H  6  S   -0.004770  -0.000808  -0.006562   0.022524   0.093589

                     16         17         18         19         20

   16  O  4  X    5.351306
   17  O  4  Y    0.000000   5.351306
   18  O  4  Z    0.000000  -0.000000   5.351306
   19  O  4  S    0.000000  -0.000000  -0.000000   0.560526
   20  O  4  X    0.761164   0.000000   0.000000   0.000000   0.934210
   21  O  4  Y    0.000000   0.761164   0.000000   0.000000   0.000000
   22  O  4  Z    0.000000   0.000000   0.761164   0.000000   0.000000
   23  H  5  S    0.015168  -0.091249  -0.022385   0.106854   0.073236
   24  H  5  S    0.011938  -0.071817  -0.017618   0.157088   0.036197
   25  H  6  S    0.082386   0.059764  -0.058765   0.117864   0.335210
   26  H  6  S    0.053275   0.038647  -0.038001   0.162435   0.159993

                     21         22         23         24         25

   21  O  4  Y    0.934210
   22  O  4  Z    0.000000   0.934210
   23  H  5  S   -0.440580  -0.108081   1.549405
   24  H  5  S   -0.217760  -0.053420   0.293151   0.274787
   25  H  6  S    0.243167  -0.239103  -0.042607   0.011179   1.549405
   26  H  6  S    0.116062  -0.114122   0.011179   0.060114   0.293151

                     26

   26  H  6  S    0.274787
 ...... END OF ONE-ELECTRON INTEGRALS ......
 STEP CPU TIME =     0.01 TOTAL CPU TIME =          0.1 (      0.0 MIN)
 TOTAL WALL CLOCK TIME=          0.1 SECONDS, CPU UTILIZATION IS    99.63%

          -------------
          GUESS OPTIONS
          -------------
          GUESS =HUCKEL            NORB  =       0          NORDER=       0
          MIX   =       F          PRTMO =       F          PUNMO =       F
          TOLZ  = 1.0E-08          TOLE  = 1.0E-05
          SYMDEN=       F          PURIFY=       F

 INITIAL GUESS ORBITALS GENERATED BY HUCKEL   ROUTINE.
 HUCKEL GUESS REQUIRES     10014 WORDS.

 SYMMETRIES FOR INITIAL GUESS ORBITALS FOLLOW.   BOTH SET(S).
    10 ORBITALS ARE OCCUPIED (    2 CORE ORBITALS).
     3=A        4=A        5=A        6=A        7=A        8=A        9=A   
    10=A       11=A       12=A       13=A       14=A       15=A       16=A   
    17=A       18=A       19=A       20=A   
 ...... END OF INITIAL ORBITAL SELECTION ......
 STEP CPU TIME =     0.00 TOTAL CPU TIME =          0.1 (      0.0 MIN)
 TOTAL WALL CLOCK TIME=          0.1 SECONDS, CPU UTILIZATION IS    99.63%

 There are           0 separated and       3 SCF (       0 of them correlated) dimers.
 Estimate of max dimer size:   39 AOs,   10 occ. MOs

 Fragment statistics

      I  NAME     Q NAT0 NATB NA  NAO LAY MUL SCFTYP        NOP     MOL    CONV
 ==============================================================================
      1 001       0    6   0   10   26 1  1 G RHF             0      -1      -1
      2 002       0    3   0    5   13 1  1 G RHF             0      -1      -1
      3 003       0    3   0    5   13 1  1 G RHF             0      -1      -1
 locfmo:
 nactfmo:                    0
 nmdfrg1:                    2                    2                    2
 nmdfrg2:                    0                    0                    0

 Close fragment pairs, distance relative to vdW radii


 RHF      monomer      1 corr= NONE       , L1=    26, L0=    26 ID=      1


 Resetting LABSIZ= 1 2


          ********************
          1 ELECTRON INTEGRALS
          ********************
 OVERLAP MATRIX

                      1          2          3          4          5

    1  O  1  S    1.000000
    2  O  1  S    0.256260   1.000000
    3  O  1  X    0.000000   0.000000   1.000000
    4  O  1  Y   -0.000000  -0.000000   0.000000   1.000000
    5  O  1  Z   -0.000000  -0.000000  -0.000000   0.000000   1.000000
    6  O  1  S    0.208361   0.740016   0.000000   0.000000   0.000000
    7  O  1  X   -0.000000   0.000000   0.498767   0.000000   0.000000
    8  O  1  Y    0.000000   0.000000   0.000000   0.498767   0.000000
    9  O  1  Z    0.000000   0.000000   0.000000   0.000000   0.498767
   10  H  2  S    0.026011   0.157108   0.053487  -0.138700   0.134914
   11  H  2  S    0.069468   0.299940   0.031472  -0.081611   0.079383
   12  H  3  S    0.023503   0.146184  -0.185204  -0.028353  -0.029085
   13  H  3  S    0.067806   0.293436  -0.115107  -0.017622  -0.018077
   14  O  4  S    0.000000   0.000000  -0.000000   0.000000   0.000000
   15  O  4  S    0.000000   0.000000  -0.000000   0.000000   0.000000
   16  O  4  X    0.000000   0.000000   0.000000   0.000000   0.000000
   17  O  4  Y   -0.000000  -0.000000   0.000000  -0.000000  -0.000000
   18  O  4  Z   -0.000000  -0.000000   0.000000  -0.000000  -0.000000
   19  O  4  S    0.000014   0.000238  -0.000013   0.000422   0.000111
   20  O  4  X    0.000002   0.000035   0.000136   0.000063   0.000016
   21  O  4  Y   -0.000079  -0.001176   0.000063  -0.001962  -0.000551
   22  O  4  Z   -0.000021  -0.000309   0.000016  -0.000551  -0.000007
   23  H  5  S    0.000069   0.002242   0.000203   0.004497   0.001222
   24  H  5  S    0.016694   0.082450   0.002559   0.056568   0.015373
   25  H  6  S    0.000000   0.000000   0.000000   0.000000   0.000000
   26  H  6  S    0.000171   0.001287   0.000293   0.001547   0.000106

                      6          7          8          9         10

    6  O  1  S    1.000000
    7  O  1  X    0.000000   1.000000
    8  O  1  Y    0.000000   0.000000   1.000000
    9  O  1  Z   -0.000000   0.000000   0.000000   1.000000
   10  H  2  S    0.359876   0.149566  -0.387848   0.377260   1.000000
   11  H  2  S    0.605263   0.118270  -0.306693   0.298320   0.645898
   12  H  3  S    0.347388  -0.539836  -0.082645  -0.084778   0.024457
   13  H  3  S    0.595295  -0.435025  -0.066599  -0.068318   0.177407
   14  O  4  S    0.000014  -0.000002   0.000079   0.000021   0.000000
   15  O  4  S    0.000238  -0.000035   0.001176   0.000309   0.000000
   16  O  4  X    0.000013   0.000136   0.000063   0.000016   0.000000
   17  O  4  Y   -0.000422   0.000063  -0.001962  -0.000551  -0.000000
   18  O  4  Z   -0.000111   0.000016  -0.000551  -0.000007  -0.000000
   19  O  4  S    0.006462  -0.000593   0.019839   0.005205   0.000028
   20  O  4  X    0.000593   0.006407   0.001822   0.000478   0.000015
   21  O  4  Y   -0.019839   0.001822  -0.054450  -0.015981  -0.000150
   22  O  4  Z   -0.005205   0.000478  -0.015981   0.002269  -0.000002
   23  H  5  S    0.045428   0.005643   0.124759   0.033904   0.000178
   24  H  5  S    0.227699   0.013412   0.296499   0.080575   0.029410
   25  H  6  S    0.000062   0.000059   0.000312   0.000021   0.000000
   26  H  6  S    0.009839   0.004463   0.023544   0.001607   0.000218

                     11         12         13         14         15

   11  H  2  S    1.000000
   12  H  3  S    0.177407   1.000000
   13  H  3  S    0.456990   0.645898   1.000000
   14  O  4  S    0.000099   0.000000   0.000314   1.000000
   15  O  4  S    0.000783   0.000000   0.002236   0.256260   1.000000
   16  O  4  X    0.000100  -0.000000  -0.000757   0.000000   0.000000
   17  O  4  Y   -0.000990  -0.000000  -0.002408  -0.000000  -0.000000
   18  O  4  Z   -0.000015  -0.000000  -0.000728  -0.000000  -0.000000
   19  O  4  S    0.006766   0.000149   0.014926   0.208361   0.740016
   20  O  4  X    0.001731  -0.000209  -0.010005   0.000000   0.000000
   21  O  4  Y   -0.017095  -0.000665  -0.031819  -0.000000  -0.000000
   22  O  4  Z   -0.000251  -0.000201  -0.009623  -0.000000   0.000000
   23  H  5  S    0.029410   0.000585   0.045458   0.023412   0.145782
   24  H  5  S    0.153464   0.045458   0.199948   0.067743   0.293191
   25  H  6  S    0.000218   0.000000   0.000471   0.026037   0.157216
   26  H  6  S    0.007750   0.000471   0.012393   0.069484   0.300002

                     16         17         18         19         20

   16  O  4  X    1.000000
   17  O  4  Y    0.000000   1.000000
   18  O  4  Z    0.000000   0.000000   1.000000
   19  O  4  S    0.000000  -0.000000   0.000000   1.000000
   20  O  4  X    0.498767   0.000000   0.000000   0.000000   1.000000
   21  O  4  Y    0.000000   0.498767   0.000000   0.000000   0.000000
   22  O  4  Z    0.000000   0.000000   0.498767   0.000000   0.000000
   23  H  5  S    0.030152  -0.181395  -0.044499   0.346920   0.088028
   24  H  5  S    0.018779  -0.112975  -0.027714   0.594918   0.070988
   25  H  6  S    0.140801   0.102140  -0.100432   0.359997   0.393566
   26  H  6  S    0.082803   0.060067  -0.059063   0.605359   0.311158

                     21         22         23         24         25

   21  O  4  Y    1.000000
   22  O  4  Z    0.000000   1.000000
   23  H  5  S   -0.529568  -0.129911   1.000000
   24  H  5  S   -0.427059  -0.104764   0.645898   1.000000
   25  H  6  S    0.285500  -0.280728   0.024532   0.177604   1.000000
   26  H  6  S    0.225720  -0.221947   0.177604   0.457297   0.645898

                     26

   26  H  6  S    1.000000
 BARE NUCLEUS HAMILTONIAN INTEGRALS (H=T+V)

                      1          2          3          4          5

    1  O  1  S  -35.034313
    2  O  1  S   -8.599307 -12.160009
    3  O  1  X    0.016314   0.085831 -10.727648
    4  O  1  Y   -0.011942  -0.062844   0.002845 -10.729289
    5  O  1  Z   -0.020857  -0.109733  -0.020469   0.020191 -10.697939
    6  O  1  S   -7.127288  -9.538876   0.082081  -0.060708  -0.104962
    7  O  1  X    0.002871   0.052009  -5.223653   0.002589  -0.018935
    8  O  1  Y   -0.002101  -0.038506   0.002589  -5.225623   0.018464
    9  O  1  Z   -0.003670  -0.066510  -0.018935   0.018464  -5.196040
   10  H  2  S   -0.896712  -2.015870  -0.573110   1.499948  -1.480941
   11  H  2  S   -2.381790  -3.857470  -0.307649   0.856114  -0.900117
   12  H  3  S   -0.811110  -1.886058   2.038569   0.299295   0.306886
   13  H  3  S   -2.325173  -3.780882   1.277731   0.162817   0.154051
   14  O  4  S    0.000000  -0.000000   0.000000  -0.000000  -0.000000
   15  O  4  S   -0.000000  -0.000000   0.000000  -0.000000  -0.000000
   16  O  4  X   -0.000000  -0.000000  -0.000000  -0.000000  -0.000000
   17  O  4  Y    0.000000   0.000000  -0.000000   0.000001   0.000000
   18  O  4  Z    0.000000   0.000000  -0.000000   0.000000   0.000000
   19  O  4  S   -0.000479  -0.003464   0.000178  -0.005558  -0.001467
   20  O  4  X   -0.000083  -0.000491  -0.001765  -0.000791  -0.000210
   21  O  4  Y    0.002791   0.016672  -0.000864   0.024983   0.007070
   22  O  4  Z    0.000732   0.004368  -0.000228   0.007016   0.000066
   23  H  5  S   -0.002509  -0.033562  -0.002615  -0.060383  -0.016461
   24  H  5  S   -0.573613  -1.069110  -0.019323  -0.629406  -0.178494
   25  H  6  S   -0.000000  -0.000000  -0.000000  -0.000000  -0.000000
   26  H  6  S   -0.005920  -0.017137  -0.003290  -0.018199  -0.001385

                      6          7          8          9         10

    6  O  1  S  -10.305451
    7  O  1  X    0.139628  -7.287219
    8  O  1  Y   -0.155999   0.007176  -7.353813
    9  O  1  Z   -0.188061  -0.062534   0.042888  -7.195402
   10  H  2  S   -3.220920  -1.083948   2.821622  -2.793994  -6.522480
   11  H  2  S   -5.471558  -0.721996   1.950679  -2.129308  -4.567836
   12  H  3  S   -3.123841   4.021875   0.577011   0.605450  -0.285622
   13  H  3  S   -5.414192   3.042625   0.308817   0.349538  -1.494122
   14  O  4  S   -0.000478   0.000083  -0.002787  -0.000731  -0.000000
   15  O  4  S   -0.003560   0.000488  -0.017095  -0.004481  -0.000000
   16  O  4  X   -0.000207  -0.001789  -0.000993  -0.000259  -0.000000
   17  O  4  Y    0.005799  -0.000785   0.026028   0.007302   0.000000
   18  O  4  Z    0.001527  -0.000205   0.007339   0.000112   0.000000
   19  O  4  S   -0.059078   0.004818  -0.175048  -0.045975  -0.000373
   20  O  4  X   -0.005590  -0.050650  -0.016675  -0.004384  -0.000181
   21  O  4  Y    0.172892  -0.014108   0.448808   0.131382   0.001913
   22  O  4  Z    0.045310  -0.003702   0.131077  -0.016519   0.000068
   23  H  5  S   -0.395513  -0.042812  -1.021727  -0.277477  -0.002575
   24  H  5  S   -2.014270  -0.067891  -2.210648  -0.615655  -0.275664
   25  H  6  S   -0.000774  -0.000650  -0.003747  -0.000312  -0.000000
   26  H  6  S   -0.083257  -0.031331  -0.185111  -0.016286  -0.002410

                     11         12         13         14         15

   11  H  2  S   -6.238244
   12  H  3  S   -1.496071  -6.577918
   13  H  3  S   -3.394175  -4.607250  -6.334200
   14  O  4  S   -0.003425  -0.000000  -0.010828 -34.902746
   15  O  4  S   -0.010623  -0.000000  -0.029869  -8.565591 -12.028442
   16  O  4  X   -0.001286   0.000000   0.008397  -0.020966  -0.110300
   17  O  4  Y    0.012113   0.000001   0.028910   0.037399   0.196776
   18  O  4  Z    0.000345   0.000000   0.008806   0.024424   0.128501
   19  O  4  S   -0.058503  -0.001686  -0.126858  -7.099875  -9.441515
   20  O  4  X   -0.013549   0.002133   0.068457  -0.003689  -0.066756
   21  O  4  Y    0.137221   0.007284   0.249090   0.006581   0.119561
   22  O  4  Z    0.005437   0.002182   0.074552   0.004298   0.077876
   23  H  5  S   -0.245969  -0.007590  -0.378931  -0.806649  -1.911384
   24  H  5  S   -1.184089  -0.402317  -1.508013  -2.315255  -3.766642
   25  H  6  S   -0.002310  -0.000000  -0.005081  -0.894486  -2.004358
   26  H  6  S   -0.059937  -0.004748  -0.096225  -2.373414  -3.823694

                     16         17         18         19         20

   16  O  4  X  -10.569951
   17  O  4  Y   -0.013387 -10.632547
   18  O  4  Z    0.024702  -0.003254 -10.557675
   19  O  4  S   -0.105365   0.188642   0.122901 -10.173940
   20  O  4  X   -5.133742  -0.012317   0.022817  -0.176125  -7.076532
   21  O  4  Y   -0.012317  -5.192270  -0.003189   0.364225  -0.038450
   22  O  4  Z    0.022817  -0.003189  -5.122445   0.216890   0.074446
   23  H  5  S   -0.346835   2.056321   0.512229  -3.330373  -0.723471
   24  H  5  S   -0.243158   1.302244   0.349049  -5.509285  -0.591215
   25  H  6  S   -1.532647  -1.078504   1.099440  -3.204784  -2.892228
   26  H  6  S   -0.927545  -0.564906   0.681209  -5.419572  -2.177646

                     21         22         23         24         25

   21  O  4  Y   -7.322874
   22  O  4  Z   -0.024476  -7.042914
   23  H  5  S    4.379084   1.087410  -7.650363
   24  H  5  S    3.342135   0.888973  -5.300064  -7.398450
   25  H  6  S   -2.031208   2.076137  -0.293916  -1.506278  -6.498193
   26  H  6  S   -1.263744   1.614094  -1.628396  -3.537676  -4.552111

                     26

   26  H  6  S   -6.213560
 KINETIC ENERGY INTEGRALS

                      1          2          3          4          5

    1  O  1  S   29.611820
    2  O  1  S   -2.598459   2.787882
    3  O  1  X   -0.000000   0.000000   5.351306
    4  O  1  Y   -0.000000  -0.000000   0.000000   5.351306
    5  O  1  Z    0.000000  -0.000000   0.000000  -0.000000   5.351306
    6  O  1  S    0.223837   0.652395   0.000000   0.000000   0.000000
    7  O  1  X   -0.000000   0.000000   0.761164   0.000000   0.000000
    8  O  1  Y   -0.000000   0.000000   0.000000   0.761164   0.000000
    9  O  1  Z    0.000000   0.000000   0.000000   0.000000   0.761164
   10  H  2  S   -0.039257  -0.049758   0.031256  -0.081052   0.078839
   11  H  2  S    0.022513   0.093549   0.020246  -0.052502   0.051068
   12  H  3  S   -0.038987  -0.056862  -0.093717  -0.014347  -0.014718
   13  H  3  S    0.021385   0.089437  -0.073205  -0.011207  -0.011496
   14  O  4  S    0.000000  -0.000000   0.000000  -0.000000  -0.000000
   15  O  4  S   -0.000000  -0.000000   0.000000  -0.000000  -0.000000
   16  O  4  X   -0.000000  -0.000000  -0.000000  -0.000000  -0.000000
   17  O  4  Y    0.000000   0.000000  -0.000000   0.000000   0.000000
   18  O  4  Z    0.000000   0.000000  -0.000000   0.000000   0.000000
   19  O  4  S   -0.000078  -0.000944   0.000043  -0.001450  -0.000380
   20  O  4  X   -0.000012  -0.000118  -0.000467  -0.000178  -0.000047
   21  O  4  Y    0.000403   0.003943  -0.000178   0.005480   0.001562
   22  O  4  Z    0.000106   0.001035  -0.000047   0.001562  -0.000063
   23  H  5  S   -0.000704  -0.010979  -0.000804  -0.017771  -0.004829
   24  H  5  S   -0.003125  -0.008862   0.000541   0.011957   0.003249
   25  H  6  S   -0.000000  -0.000000  -0.000000  -0.000000  -0.000000
   26  H  6  S   -0.000313  -0.001889  -0.000344  -0.001814  -0.000124

                      6          7          8          9         10

    6  O  1  S    0.560526
    7  O  1  X    0.000000   0.934210
    8  O  1  Y   -0.000000   0.000000   0.934210
    9  O  1  Z   -0.000000  -0.000000   0.000000   0.934210
   10  H  2  S    0.117760   0.127362  -0.330270   0.321254   1.549405
   11  H  2  S    0.162386   0.060808  -0.157685   0.153380   0.293151
   12  H  3  S    0.107243  -0.449511  -0.068817  -0.070593  -0.042535
   13  H  3  S    0.157281  -0.221890  -0.033970  -0.034847   0.011107
   14  O  4  S   -0.000078   0.000012  -0.000403  -0.000106  -0.000000
   15  O  4  S   -0.000944   0.000118  -0.003943  -0.001035  -0.000000
   16  O  4  X   -0.000043  -0.000467  -0.000178  -0.000047  -0.000000
   17  O  4  Y    0.001450  -0.000178   0.005480   0.001562   0.000000
   18  O  4  Z    0.000380  -0.000047   0.001562  -0.000063   0.000000
   19  O  4  S   -0.008552   0.000564  -0.018844  -0.004944  -0.000128
   20  O  4  X   -0.000564  -0.006106  -0.001050  -0.000275  -0.000061
   21  O  4  Y    0.018844  -0.001050   0.028957   0.009208   0.000601
   22  O  4  Z    0.004944  -0.000275   0.009208  -0.003722   0.000009
   23  H  5  S   -0.033739  -0.001301  -0.028767  -0.007818  -0.001016
   24  H  5  S    0.006360   0.003672   0.081177   0.022060  -0.014066
   25  H  6  S   -0.000256  -0.000213  -0.001122  -0.000077  -0.000000
   26  H  6  S   -0.007325  -0.002225  -0.011739  -0.000801  -0.000424

                     11         12         13         14         15

   11  H  2  S    0.274787
   12  H  3  S    0.011107   1.549405
   13  H  3  S    0.060017   0.293151   0.274787
   14  O  4  S   -0.000201  -0.000000  -0.000506  29.611820
   15  O  4  S   -0.001277  -0.000000  -0.002876  -2.598459   2.787882
   16  O  4  X   -0.000134   0.000000   0.000749  -0.000000   0.000000
   17  O  4  Y    0.001323   0.000001   0.002382   0.000000   0.000000
   18  O  4  Z    0.000019   0.000000   0.000720   0.000000  -0.000000
   19  O  4  S   -0.005660  -0.000545  -0.009582   0.223837   0.652395
   20  O  4  X   -0.001022   0.000659   0.003964   0.000000   0.000000
   21  O  4  Y    0.010098   0.002095   0.012606   0.000000   0.000000
   22  O  4  Z    0.000148   0.000634   0.003812   0.000000   0.000000
   23  H  5  S   -0.014066  -0.002775  -0.015796  -0.038971  -0.057109
   24  H  5  S   -0.010522  -0.015796  -0.004018   0.021343   0.089283
   25  H  6  S   -0.000424  -0.000000  -0.000808  -0.039258  -0.049684
   26  H  6  S   -0.004770  -0.000808  -0.006562   0.022524   0.093589

                     16         17         18         19         20

   16  O  4  X    5.351306
   17  O  4  Y    0.000000   5.351306
   18  O  4  Z    0.000000  -0.000000   5.351306
   19  O  4  S    0.000000  -0.000000  -0.000000   0.560526
   20  O  4  X    0.761164   0.000000   0.000000   0.000000   0.934210
   21  O  4  Y    0.000000   0.761164   0.000000   0.000000   0.000000
   22  O  4  Z    0.000000   0.000000   0.761164   0.000000   0.000000
   23  H  5  S    0.015168  -0.091249  -0.022385   0.106854   0.073236
   24  H  5  S    0.011938  -0.071817  -0.017618   0.157088   0.036197
   25  H  6  S    0.082386   0.059764  -0.058765   0.117864   0.335210
   26  H  6  S    0.053275   0.038647  -0.038001   0.162435   0.159993

                     21         22         23         24         25

   21  O  4  Y    0.934210
   22  O  4  Z    0.000000   0.934210
   23  H  5  S   -0.440580  -0.108081   1.549405
   24  H  5  S   -0.217760  -0.053420   0.293151   0.274787
   25  H  6  S    0.243167  -0.239103  -0.042607   0.011179   1.549405
   26  H  6  S    0.116062  -0.114122   0.011179   0.060114   0.293151

                     26

   26  H  6  S    0.274787
 Z-ANGULAR MOMENTUM INTEGRALS

                      1          2          3          4          5

    1  O  1  S   -0.007421
    2  O  1  S    0.430372  -0.206346
    3  O  1  X    0.279614  -0.017558   0.428633
    4  O  1  Y   -0.205542   0.278671  -0.498369  -0.472409
    5  O  1  Z    0.501385   0.472139  -0.002727   0.006704   0.041389
    6  O  1  S    0.098085  -0.022856   0.011138   0.044425   0.100414
    7  O  1  X    0.099132   0.094775  -0.108712  -0.102575  -0.007560
    8  O  1  Y   -0.123544  -0.054252   0.050629  -0.139153  -0.126881
    9  O  1  Z   -0.197607  -0.188736   0.007630  -0.014035   0.169846
   10  H  2  S    5.000000  -0.079648   0.535278   0.517504  -0.467318
   11  H  2  S    0.143142   0.638320  -0.147507  -0.250141   0.131542
   12  H  3  S   -0.168421  -0.024694   0.130342  -0.418388  -0.160457
   13  H  3  S    0.215359  -0.095020  -0.040870   0.104138   0.465318
   14  O  4  S    0.305847   0.216806   7.000000  -0.187295   0.669479
   15  O  4  S   -0.008426  -0.252962  -0.073824   0.758580  -0.003302
   16  O  4  X    0.124260   2.001577   0.278817  -0.815619  -0.302247
   17  O  4  Y   -0.592952   0.330582  -0.200292  -0.654636  -0.181069
   18  O  4  Z    0.045833   0.203894  -0.007068   0.092936  -0.058548
   19  O  4  S    0.430263  -0.201783  -0.944439  -0.585864  -0.795242
   20  O  4  X    0.328892  -1.224746  -0.338065   1.272963   0.000429
   21  O  4  Y   -0.119250   0.110175   0.041721  -0.315559   0.221350
   22  O  4  Z   -0.137084  -0.099215   0.003681   0.006177   0.408298
   23  H  5  S   -0.322830   0.092984  -0.275950   0.167212   0.319415
   24  H  5  S   -0.231750   0.070800  -0.486012  -0.060911   0.374346
   25  H  6  S   -0.053562  -0.206401   0.028964  -0.015228   0.074380
   26  H  6  S    0.560869  -0.516399   0.173577   0.402252  -0.275189

                      6          7          8          9         10

    6  O  1  S   -0.020668
    7  O  1  X    0.024067  -0.136937
    8  O  1  Y   -0.057731   0.002274   0.003028
    9  O  1  Z    0.500673  -0.079001  -0.042054   0.169009
   10  H  2  S   -0.448224  -0.133997   0.289255  -0.157225  -0.253236
   11  H  2  S   -0.433274  -0.367961  -0.368094  -0.310582   0.085051
   12  H  3  S   -0.024892   0.122330   0.158456   0.149989   0.335708
   13  H  3  S   -0.083646  -0.038970   0.094272  -0.237081  -0.193750
   14  O  4  S    0.197810  -0.119509  -0.171786  -0.434866  -0.346234
   15  O  4  S    0.564617   0.171169  -0.076923   0.056882  -0.185359
   16  O  4  X    0.138242  -1.715810  -0.299380   0.125591   0.020608
   17  O  4  Y    9.000000  -0.005701   0.381967   0.074455  -0.006344
   18  O  4  Z   -0.231950   0.005555  -0.139695   0.106790   0.486458
   19  O  4  S    0.386587   0.498033  -1.122881  -0.125581   1.350064
   20  O  4  X    0.001635  -0.013237  -0.010012  -0.001686   0.001063
   21  O  4  Y   -0.137261   0.066894   0.051931  -0.492193   0.391942
   22  O  4  Z   -0.248433  13.000000   0.026584  -0.586023   0.360277
   23  H  5  S   -0.215882   0.003092  -0.063733  -0.173670  -0.065116
   24  H  5  S    0.418921  -0.291585   1.127869  -0.882672   1.000000
   25  H  6  S    0.287475  -0.040017   0.221090  -0.121713  -0.178491
   26  H  6  S    0.563408  -0.214917  -0.441428   1.000000   0.000000

                     11         12         13         14         15

   11  H  2  S   -0.178941
   12  H  3  S    0.283942  -0.102407
   13  H  3  S   -0.220892  -0.177972  -0.142020
   14  O  4  S   -0.386465  -0.321488  -0.004296  -0.535870
   15  O  4  S    0.150711   0.000466  -1.233285  -0.113994   0.355034
   16  O  4  X   -1.433232   0.182352   0.280880  -0.152610   2.038954
   17  O  4  Y   -0.054826  -0.544967  -0.158149   0.018321   0.118821
   18  O  4  Z   -0.000803   0.005200   0.223642  -0.070868   0.265153
   19  O  4  S   -0.001640   0.040936  -0.567539   0.233293  -0.369278
   20  O  4  X    0.022000   0.024499   0.004122   0.038803  -0.031139
   21  O  4  Y   -0.007775   0.178976  -0.143833  -0.671700   0.019551
   22  O  4  Z   -0.518303   0.917937  -0.642000  -0.452583   0.261955
   23  H  5  S   -0.049961   0.056350   0.244636   0.107737   0.081585
   24  H  5  S    0.002612  -0.326432  -0.270283   0.117381   0.151345
   25  H  6  S    0.097150   0.026883  -0.303083  -0.219771  -0.426512
   26  H  6  S    0.000000  -0.369666  -0.042934   0.437277   0.454414

                     16         17         18         19         20

   16  O  4  X   -0.386999
   17  O  4  Y    0.065616   0.122532
   18  O  4  Z   -0.020208   0.774398   0.306920
   19  O  4  S   -0.046707   0.943701  -0.381500  11.000000
   20  O  4  X   -0.010775   0.002094  -0.001467  -0.077229   0.209587
   21  O  4  Y   -0.057599   0.182203   0.968267  -0.010204   0.872856
   22  O  4  Z   -0.000515   0.012211   0.072235   0.219976  -0.063765
   23  H  5  S   -0.144704   0.140494   0.174502  -0.063645   0.002428
   24  H  5  S    0.483560   0.431344  -0.189430   0.700263  -0.508226
   25  H  6  S    0.016104   0.118774   0.234842   0.444421  -0.013249
   26  H  6  S    0.126132  -0.615204  -0.141821  -0.451838  -0.096625

                     21         22         23         24         25

   21  O  4  Y   -0.503644
   22  O  4  Z   -0.003326  -0.112053
   23  H  5  S    0.100614   0.301762   0.037218
   24  H  5  S    0.921028  -0.654917  -0.001692   0.024853
   25  H  6  S   -0.151221   0.225019  -0.102334   0.189022  -0.052286
   26  H  6  S    0.623340   0.184056  -0.277041   0.200164  -0.285065

                     26

   26  H  6  S   -0.019367

          --------------------
          2 ELECTRON INTEGRALS
          --------------------

 DIRECT SCF METHOD SKIPS INTEGRAL STORAGE ON DISK.
  ...... END OF TWO-ELECTRON INTEGRALS .....
 STEP CPU TIME =     0.01 TOTAL CPU TIME =          0.1 (      0.0 MIN)
 TOTAL WALL CLOCK TIME=          0.1 SECONDS, CPU UTILIZATION IS    99.67%
 SCHWARZ INEQUALITY OVERHEAD:       441 INTEGRALS, T=        0.00
 ESP lfg=    2: NZ       30263 skipped       146 blocks.

          --------------------
          2 ELECTRON INTEGRALS
          --------------------

 DIRECT SCF METHOD SKIPS INTEGRAL STORAGE ON DISK.
  ...... END OF TWO-ELECTRON INTEGRALS .....
 STEP CPU TIME =     0.01 TOTAL CPU TIME =          0.1 (      0.0 MIN)
 TOTAL WALL CLOCK TIME=          0.1 SECONDS, CPU UTILIZATION IS    99.69%
 SCHWARZ INEQUALITY OVERHEAD:       441 INTEGRALS, T=        0.00
 ESP lfg=    3: NZ       30367 skipped       145 blocks.

          --------------------
          2 ELECTRON INTEGRALS
          --------------------

 DIRECT SCF METHOD SKIPS INTEGRAL STORAGE ON DISK.
  ...... END OF TWO-ELECTRON INTEGRALS .....
 STEP CPU TIME =     0.01 TOTAL CPU TIME =          0.1 (      0.0 MIN)
 TOTAL WALL CLOCK TIME=          0.1 SECONDS, CPU UTILIZATION IS    99.70%
 ...... END OF ONE-ELECTRON INTEGRALS ......
 STEP CPU TIME =     0.00 TOTAL CPU TIME =          0.1 (      0.0 MIN)
 TOTAL WALL CLOCK TIME=          0.1 SECONDS, CPU UTILIZATION IS    99.70%

          --------------------
          2 ELECTRON INTEGRALS
          --------------------

 THE -PK- OPTION IS OFF, THE INTEGRALS ARE NOT IN SUPERMATRIX FORM.
 STORING   15000 INTEGRALS/RECORD ON DISK, USING 12 BYTES/INTEGRAL.
 TWO ELECTRON INTEGRAL EVALUATION REQUIRES   89461 WORDS OF MEMORY.
 SCHWARZ INEQUALITY OVERHEAD:       350 INTEGRALS, T=        0.00
 II,JST,KST,LST =  1  1  1  1 NREC =         1 INTLOC =    1
 II,JST,KST,LST =  2  1  1  1 NREC =         1 INTLOC =    2
 II,JST,KST,LST =  3  1  1  1 NREC =         1 INTLOC =   34
 II,JST,KST,LST =  4  1  1  1 NREC =         1 INTLOC =  214
 II,JST,KST,LST =  5  1  1  1 NREC =         1 INTLOC =  719
 II,JST,KST,LST =  6  1  1  1 NREC =         1 INTLOC = 1390
 II,JST,KST,LST =  7  1  1  1 NREC =         1 INTLOC = 2260
 II,JST,KST,LST =  8  1  1  1 NREC =         1 INTLOC = 3365
 II,JST,KST,LST =  9  1  1  1 NREC =         1 INTLOC = 4044
 II,JST,KST,LST = 10  1  1  1 NREC =         1 INTLOC =10843
 II,JST,KST,LST = 11  1  1  1 NREC =         2 INTLOC =10791
 II,JST,KST,LST = 12  1  1  1 NREC =         3 INTLOC = 1521
 II,JST,KST,LST = 13  1  1  1 NREC =         3 INTLOC = 8163
 II,JST,KST,LST = 14  1  1  1 NREC =         3 INTLOC =14670
 SCHWARZ INEQUALITY TEST SKIPPED         632 INTEGRAL BLOCKS.
 TOTAL NUMBER OF NONZERO TWO-ELECTRON INTEGRALS =               52947
          4 INTEGRAL RECORDS WERE STORED ON DISK FILE  8.
  ...... END OF TWO-ELECTRON INTEGRALS .....
 STEP CPU TIME =     0.01 TOTAL CPU TIME =          0.1 (      0.0 MIN)
 TOTAL WALL CLOCK TIME=          0.1 SECONDS, CPU UTILIZATION IS    99.73%

          --------------------------
                 RHF SCF CALCULATION
          --------------------------

     NUCLEAR ENERGY =        37.4695299782
     MAXIT =  200     NPUNCH=    2
     EXTRAP=T  DAMP=F  SHIFT=F  RSTRCT=F  DIIS=F  DEM=F  SOSCF=T
     DENSITY MATRIX CONV=  1.00E-07
     SOSCF WILL OPTIMIZE     160 ORBITAL ROTATIONS, SOGTOL=   0.250
     MEMORY REQUIRED FOR RHF ITERS=     35736 WORDS.

 ITER EX DEM     TOTAL ENERGY        E CHANGE  DENSITY CHANGE     ORB. GRAD
   1  0  0     -151.3855052418  -151.3855052418   0.508192300   0.000000000
          ---------------START SECOND ORDER SCF---------------
   2  1  0     -151.7929432318    -0.4074379900   0.128950788   0.054149053
   3  2  0     -151.8142563931    -0.0213131613   0.047079219   0.019038359
   4  3  0     -151.8161684178    -0.0019120247   0.004812271   0.005964052
   5  4  0     -151.8163564194    -0.0001880015   0.001015768   0.001206868
   6  5  0     -151.8163727762    -0.0000163568   0.000706665   0.000421021
   7  6  0     -151.8163748305    -0.0000020543   0.000134362   0.000049652
   8  7  0     -151.8163748514    -0.0000000209   0.000024925   0.000035211
   9  8  0     -151.8163748555    -0.0000000041   0.000008848   0.000003478
  10  9  0     -151.8163748558    -0.0000000003   0.000002462   0.000001050
  11 10  0     -151.8163748558    -0.0000000000   0.000000780   0.000000466
  12 11  0     -151.8163748558    -0.0000000000   0.000000201   0.000000080
  13 12  0     -151.8163748558    -0.0000000000   0.000000047   0.000000026
  14 13  0     -151.8163748558    -0.0000000000   0.000000000   0.000000008

          -----------------
          DENSITY CONVERGED
          -----------------
     TIME TO FORM FOCK OPERATORS=       0.0 SECONDS (       0.0 SEC/ITER)
     TIME TO SOLVE SCF EQUATIONS=       0.0 SECONDS (       0.0 SEC/ITER)

 FINAL RHF ENERGY IS     -151.8163748558 AFTER  14 ITERATIONS

          ------------
          EIGENVECTORS
          ------------

                      1          2          3          4          5
                  -20.5873   -20.5281    -1.3483    -1.2994    -0.6920
                     A          A          A          A          A   
    1  O  1  S    0.994679   0.000080  -0.230023   0.036636   0.008655
    2  O  1  S    0.020688   0.000043   0.241083  -0.039845  -0.007274
    3  O  1  X   -0.001090   0.000005  -0.040301   0.007143   0.293839
    4  O  1  Y   -0.001235   0.000028  -0.048755   0.013899  -0.168300
    5  O  1  Z    0.000978   0.000006   0.037645  -0.005137   0.203245
    6  O  1  S   -0.001101  -0.000094   0.696331  -0.110801  -0.043247
    7  O  1  X    0.000484  -0.000015  -0.047168   0.008654   0.283868
    8  O  1  Y    0.000577  -0.000129  -0.051395   0.020334  -0.164072
    9  O  1  Z   -0.000420  -0.000029   0.041974  -0.004563   0.192229
   10  H  2  S    0.000204   0.000009   0.114076  -0.020601   0.233405
   11  H  2  S    0.000371  -0.000034   0.020159  -0.002579   0.179981
   12  H  3  S    0.000206   0.000021   0.100984  -0.018621  -0.198243
   13  H  3  S    0.000329  -0.000047   0.014877   0.000702  -0.156022
   14  O  4  S   -0.000073   0.994674  -0.033644  -0.230046  -0.003884
   15  O  4  S   -0.000003   0.020728   0.035867   0.237935   0.004184
   16  O  4  X   -0.000001   0.001345   0.007423   0.051729   0.024208
   17  O  4  Y    0.000006  -0.000615  -0.007610  -0.023885   0.072091
   18  O  4  Z    0.000000  -0.001271  -0.007525  -0.048286  -0.004169
   19  O  4  S   -0.000000  -0.001167   0.095398   0.700950   0.015122
   20  O  4  X   -0.000000  -0.000610   0.006709   0.051896   0.024952
   21  O  4  Y    0.000006   0.000331  -0.005555  -0.031352   0.069163
   22  O  4  Z    0.000005   0.000561  -0.008092  -0.054391  -0.000675
   23  H  5  S    0.000008   0.000195   0.026519   0.101695  -0.047557
   24  H  5  S   -0.000017   0.000470   0.016740   0.008902  -0.042791
   25  H  6  S    0.000004   0.000206   0.015626   0.115282   0.042863
   26  H  6  S   -0.000002   0.000340   0.002186   0.027346   0.034170

                      6          7          8          9         10
                   -0.6587    -0.5623    -0.5200    -0.4830    -0.4537
                     A          A          A          A          A   
    1  O  1  S    0.007219  -0.069908   0.035859  -0.012372  -0.004318
    2  O  1  S   -0.007114   0.072788  -0.040139   0.011943   0.004451
    3  O  1  X   -0.116460   0.233633  -0.158709  -0.056723  -0.005518
    4  O  1  Y   -0.103325   0.274318   0.061290   0.310038   0.037653
    5  O  1  Z   -0.068544  -0.146988   0.277998   0.287548   0.016104
    6  O  1  S   -0.032096   0.312275  -0.154968   0.060284   0.021623
    7  O  1  X   -0.118210   0.271777  -0.188081  -0.071309  -0.005412
    8  O  1  Y   -0.119713   0.311596   0.084958   0.366007   0.038732
    9  O  1  Z   -0.072035  -0.170965   0.330396   0.349963   0.023575
   10  H  2  S   -0.015090  -0.109642   0.047318  -0.020532  -0.012457
   11  H  2  S   -0.017282  -0.087339   0.044315  -0.023169  -0.005327
   12  H  3  S    0.084759  -0.110939   0.042320  -0.017384   0.003271
   13  H  3  S    0.061055  -0.098610   0.033390  -0.020815  -0.013427
   14  O  4  S   -0.001430   0.042919   0.063102  -0.029171  -0.011950
[...]

    1             0.986141   0.543962   1.030641   0.437881   1.956399
    2             0.317044   0.029542   0.053457   0.023491   0.001960
    3             0.298994   0.105871   0.059602  -0.000040   0.001467
    4             0.297238   1.170099   0.797654   1.535081   0.038789
    5             0.079642   0.083334   0.027410   0.001799   0.000439
    6             0.020941   0.067192   0.031237   0.001787   0.000946

          ----- MULLIKEN ATOMIC OVERLAP POPULATIONS -----
          (OFF-DIAGONAL ELEMENTS NEED TO BE MULTIPLIED BY 2)

                      1          2          3          4          5

    1  O  1  S    2.100391
    2  O  1  S   -0.021528   0.130036
    3  O  1  X   -0.000000   0.000000   0.429417
    4  O  1  Y    0.000000  -0.000000  -0.000000   0.349055
    5  O  1  Z    0.000000  -0.000000   0.000000   0.000000   0.477561
    6  O  1  S   -0.081730   0.296134   0.000000  -0.000000  -0.000000
    7  O  1  X   -0.000000   0.000000   0.259740  -0.000000   0.000000
    8  O  1  Y    0.000000  -0.000000  -0.000000   0.182925   0.000000
    9  O  1  Z    0.000000  -0.000000   0.000000   0.000000   0.289147
   10  H  2  S   -0.000716   0.004543   0.001007   0.037205   0.002040
   11  H  2  S    0.000545  -0.001787   0.000002   0.014157   0.000331
   12  H  3  S   -0.000771   0.005181   0.021740   0.012398   0.010852
   13  H  3  S    0.000522  -0.001700   0.009350   0.006145   0.005298
   14  O  4  S   -0.000000   0.000000  -0.000000   0.000000   0.000000
   15  O  4  S    0.000000  -0.000000  -0.000000  -0.000000  -0.000000
   16  O  4  X   -0.000000  -0.000000  -0.000000   0.000000   0.000000
   17  O  4  Y   -0.000000  -0.000000  -0.000000  -0.000000  -0.000000
   18  O  4  Z   -0.000000  -0.000000  -0.000000  -0.000000  -0.000000
   19  O  4  S    0.000000  -0.000000  -0.000000  -0.000024  -0.000002
   20  O  4  X   -0.000000  -0.000000  -0.000000   0.000000   0.000000
   21  O  4  Y    0.000001  -0.000004  -0.000000  -0.000106  -0.000005
   22  O  4  Z    0.000000  -0.000001  -0.000000  -0.000014  -0.000000
   23  H  5  S   -0.000000  -0.000000  -0.000000   0.000000  -0.000000
   24  H  5  S   -0.000001   0.000003   0.000005   0.000017   0.000007
   25  H  6  S   -0.000000   0.000000  -0.000000   0.000000   0.000000
   26  H  6  S   -0.000000   0.000001   0.000001   0.000014   0.000000

                      6          7          8          9         10

    6  O  1  S    1.277871
    7  O  1  X    0.000000   0.635013
    8  O  1  Y   -0.000000  -0.000000   0.391235
    9  O  1  Z   -0.000000   0.000000   0.000000   0.705023
   10  H  2  S    0.026348   0.004585   0.113996   0.007775   0.141783
   11  H  2  S   -0.024859   0.000617   0.051763   0.001824   0.054924
   12  H  3  S    0.018457   0.066156   0.030935   0.033300  -0.000991
   13  H  3  S   -0.032016   0.038170   0.020836   0.022076  -0.008343
   14  O  4  S    0.000000   0.000000   0.000002   0.000000   0.000000
   15  O  4  S   -0.000004  -0.000000  -0.000024  -0.000002  -0.000002
   16  O  4  X    0.000000  -0.000001   0.000001   0.000000   0.000000
   17  O  4  Y   -0.000034  -0.000001  -0.000151  -0.000013   0.000045
   18  O  4  Z   -0.000003  -0.000000  -0.000013  -0.000000   0.000006
   19  O  4  S   -0.000385  -0.000006  -0.001686  -0.000133  -0.000328
   20  O  4  X    0.000011  -0.000016   0.000031   0.000000   0.000003
   21  O  4  Y   -0.001788  -0.000028  -0.004986  -0.000290   0.001397
   22  O  4  Z   -0.000138  -0.000004  -0.000505   0.000028   0.000169
   23  H  5  S    0.000001  -0.000001   0.000005  -0.000000  -0.000002
   24  H  5  S    0.000259   0.000076   0.000423   0.000129   0.000044
   25  H  6  S    0.000000  -0.000000   0.000002   0.000000  -0.000000
   26  H  6  S    0.000095   0.000016   0.000364   0.000001   0.000079

                     11         12         13         14         15

   11  H  2  S    0.082969
   12  H  3  S   -0.008579   0.166558
   13  H  3  S   -0.019305   0.077457   0.094210
   14  O  4  S   -0.000293  -0.000000  -0.000000   2.100076
   15  O  4  S    0.001454   0.000000   0.000001  -0.022034   0.134151
   16  O  4  X    0.000083  -0.000000  -0.000001   0.000000  -0.000000
   17  O  4  Y    0.005786   0.000000   0.000002   0.000000  -0.000000
   18  O  4  Z    0.000299   0.000000   0.000000  -0.000000   0.000000
   19  O  4  S    0.015596   0.000001   0.000069  -0.080781   0.298970
   20  O  4  X    0.000486  -0.000000  -0.000017   0.000000  -0.000000
   21  O  4  Y    0.034650   0.000005   0.000115   0.000000  -0.000000
   22  O  4  Z    0.002006   0.000000   0.000008  -0.000000   0.000000
   23  H  5  S   -0.000996   0.000000   0.000002  -0.000726   0.004668
   24  H  5  S   -0.003628  -0.000001   0.000001   0.000553  -0.002495
   25  H  6  S   -0.000682  -0.000000   0.000000  -0.000791   0.005222
   26  H  6  S   -0.002755  -0.000000   0.000000   0.000697  -0.002711

                     16         17         18         19         20

   16  O  4  X    0.372416
   17  O  4  Y    0.000000   0.434635
   18  O  4  Z   -0.000000   0.000000   0.457308
   19  O  4  S   -0.000000  -0.000000   0.000000   1.248014
   20  O  4  X    0.199057   0.000000  -0.000000  -0.000000   0.431460
   21  O  4  Y    0.000000   0.247249   0.000000  -0.000000   0.000000
   22  O  4  Z   -0.000000   0.000000   0.262624   0.000000  -0.000000
   23  H  5  S    0.038219   0.000778   0.001110   0.026017   0.116613
   24  H  5  S    0.017838   0.000412   0.000640  -0.023916   0.070426
   25  H  6  S    0.003601   0.021459   0.020534   0.020687   0.007649
   26  H  6  S    0.001753   0.009467   0.009091  -0.034693   0.005170

                     21         22         23         24         25

   21  O  4  Y    0.567854
   22  O  4  Z    0.000000   0.610761
   23  H  5  S    0.003371   0.002253   0.139667
   24  H  5  S    0.002296   0.001889   0.061470   0.072997
   25  H  6  S    0.062607   0.058812  -0.001020  -0.007872   0.165940
   26  H  6  S    0.037157   0.034924  -0.008077  -0.016232   0.073583

                     26

   26  H  6  S    0.086803

               ----- POPULATIONS IN EACH AO -----
                             MULLIKEN      LOWDIN
              1  O  1  S      1.99671     1.98889
              2  O  1  S      0.41088     0.56763
              3  O  1  X      0.72126     0.72474
              4  O  1  Y      0.60177     0.58267
              5  O  1  Z      0.78523     0.79434
              6  O  1  S      1.47822     1.06055
              7  O  1  X      1.00432     0.99939
              8  O  1  Y      0.78515     0.79779
              9  O  1  Z      1.05886     1.04751
             10  H  2  S      0.38557     0.40339
             11  H  2  S      0.20461     0.35079
             12  H  3  S      0.43270     0.44644
             13  H  3  S      0.21288     0.32368
             14  O  4  S      1.99670     1.98880
             15  O  4  S      0.41719     0.56890
             16  O  4  X      0.63297     0.61635
             17  O  4  Y      0.71963     0.71577
             18  O  4  Z      0.75160     0.75166
             19  O  4  S      1.46740     1.05091
             20  O  4  X      0.83087     0.83571
             21  O  4  Y      0.94949     0.95362
             22  O  4  Z      0.97281     0.97242
             23  H  5  S      0.38335     0.40501
             24  H  5  S      0.17534     0.29700
             25  H  6  S      0.42973     0.44239
             26  H  6  S      0.19475     0.31366

          ----- MULLIKEN ATOMIC OVERLAP POPULATIONS -----
          (OFF-DIAGONAL ELEMENTS NEED TO BE MULTIPLIED BY 2)

             1           2           3           4           5

    1    8.3449752
    2    0.2393759   0.3346001
    3    0.2669296  -0.0372176   0.4156824
    4   -0.0102943   0.0613559   0.0001815   8.1668415
    5    0.0009223  -0.0045816   0.0000022   0.2599482   0.3356027
    6    0.0004945  -0.0033578   0.0000000   0.2606361  -0.0332001

             6

    6    0.3999084

          TOTAL MULLIKEN AND LOWDIN ATOMIC POPULATIONS
       ATOM         MULL.POP.                    LOW.POP.

          TOTAL MULLIKEN AND LOWDIN ATOMIC POPULATIONS
       ATOM         MULL.POP.    CHARGE          LOW.POP.     CHARGE
    1 O             8.842403                     8.563508
    1 O             8.842403   -0.842403         8.563508   -0.563508
    2 H             0.590175                     0.754173
    2 H             0.590175    0.409825         0.754173    0.245827
    3 H             0.645578                     0.770127
    3 H             0.645578    0.354422         0.770127    0.229873
    4 O             8.738669                     8.454140
    4 O             8.738669   -0.738669         8.454140   -0.454140
    5 H             0.558694                     0.702005
    5 H             0.558694    0.441306         0.702005    0.297995
    6 H             0.624481                     0.756047
    6 H             0.624481    0.375519         0.756047    0.243953

          MULLIKEN SPHERICAL HARMONIC POPULATIONS
       ATOM           S       P       D      F      G      H      I    TOTAL
    1 O             3.89    4.96    0.00   0.00   0.00   0.00   0.00    8.84
    2 H             0.59    0.00    0.00   0.00   0.00   0.00   0.00    0.59
    3 H             0.65    0.00    0.00   0.00   0.00   0.00   0.00    0.65
    4 O             3.88    4.86    0.00   0.00   0.00   0.00   0.00    8.74
    5 H             0.56    0.00    0.00   0.00   0.00   0.00   0.00    0.56
    6 H             0.62    0.00    0.00   0.00   0.00   0.00   0.00    0.62

          -------------------------------
          BOND ORDER AND VALENCE ANALYSIS     BOND ORDER THRESHOLD=0.050
          -------------------------------

                   BOND                       BOND                       BOND
  ATOM PAIR DIST  ORDER      ATOM PAIR DIST  ORDER      ATOM PAIR DIST  ORDER
    1   2  0.985  0.705        1   3  0.965  0.843        2   4  1.777  0.133
    4   5  0.984  0.775        4   6  0.965  0.821

                       TOTAL       BONDED        FREE
      ATOM            VALENCE     VALENCE     VALENCE
    1 O                 1.568       1.568       0.000
    2 H                 0.842       0.842      -0.000
    3 H                 0.845       0.845       0.000
    4 O                 1.745       1.745      -0.000
    5 H                 0.781       0.781       0.000
    6 H                 0.829       0.829      -0.000

          ---------------------
          ELECTROSTATIC MOMENTS
          ---------------------

 POINT   1           X           Y           Z (BOHR)    CHARGE
                -0.000109    0.000056   -0.000033        0.00 (A.U.)
         DX          DY          DZ         /D/  (DEBYE)
    -0.054369    3.642331    0.693214    3.708110
 ...... END OF PROPERTY EVALUATION ......
 STEP CPU TIME =     0.00 TOTAL CPU TIME =          1.0 (      0.0 MIN)
 TOTAL WALL CLOCK TIME=          1.0 SECONDS, CPU UTILIZATION IS    99.97%
 Redoing 1e ESP:                    -1
 STEP CPU TIME =     0.00 TOTAL CPU TIME =          1.0 (      0.0 MIN)
 TOTAL WALL CLOCK TIME=          1.0 SECONDS, CPU UTILIZATION IS    99.97%
 STEP CPU TIME =     0.00 TOTAL CPU TIME =          1.0 (      0.0 MIN)
 TOTAL WALL CLOCK TIME=          1.0 SECONDS, CPU UTILIZATION IS    99.97%

  iFrag=      3 jFrag=      2 EFMOu=  -151.790165423 Tr=-0.003296414
 STEP CPU TIME =     0.00 TOTAL CPU TIME =          1.0 (      0.0 MIN)
 TOTAL WALL CLOCK TIME=          1.0 SECONDS, CPU UTILIZATION IS    99.97%

 Dimer synchronisation for layer 1 took     0.0 s.
 STEP CPU TIME =     0.00 TOTAL CPU TIME =          1.0 (      0.0 MIN)
 TOTAL WALL CLOCK TIME=          1.0 SECONDS, CPU UTILIZATION IS    99.97%
 STEP CPU TIME =     0.00 TOTAL CPU TIME =          1.0 (      0.0 MIN)
 TOTAL WALL CLOCK TIME=          1.0 SECONDS, CPU UTILIZATION IS    99.97%


         FMO properties
         ###############


 Layer 1 converged in  7 iterations (max200, conv .10E-06).


 Nuclear repulsion energy:            140.712110486
 Total number of atoms:                    12
 Total number of electrons:                40
 Total charge:                              0
 Total spin multiplicity:                   1
 Total number of basis functions:          52
 Total number of molecular orbitals:       52

 Energy values (E) are given with external ESP subtracted.

 D(dipole), Q(quadrupole) and O(octopole) moments are printed in the order:
 X,Y,Z; XX,YY,ZZ,XY,XZ,YZ; XXX,XXY,XXZ,XYY,YYY,YYZ,XZZ,YZZ,ZZZ,XYZ,
 computed at the point:   -0.00010875   0.00005557  -0.00003251

 One-body FMO properties.
 =======================

                      EPL0d    EPL0s    EPL0   EPLd*PLd    DX        DY        DZ
    1(001     ,L1)    0.000    0.000    0.000*********   0.07134  -3.62666  -0.68362
    2(002     ,L1)    0.000    0.000    0.000*********   1.74314   1.78415  -0.99023
    3(003     ,L1)    0.000    0.000    0.000*********  -1.83310   1.19249   1.55476

 Frontier molecular orbital (FMO!) properties based on Koopmans' theorem.
 Electronegativity = - chemical potential. All values are in eV.

  Frag  Ionization    Electron    Chemical    Global       Global  Electrophili-
         potential    affinity    potential  hardness     softness  city index
 EA and related properties are often very inaccurate.
 -------------------------------------------------------------------------------
     1   12.569725    6.773379   -9.671552    5.796347    0.172522      8.068782
     2   13.024601    7.379468  -10.202035    5.645133    0.177144      9.218694
     3   13.149787    7.238920  -10.194354    5.910867    0.169180      8.790998

 Total energy of the molecule: Euncorr(1)=     -303.561644983
 Dipole moment D(xyz),DA(1)=   -0.0186214   -0.6500149   -0.1190970    0.6610978

 Two-body FMO properties.
 ========================

 DL: D=C dynamically correlated (MP2,CI), D=N not dynamically correlated
 (RHF,DFT). D=S separated dimer: semiclassical interaction (ES), D=M MCSCF.
 L stands for layer, Z is the monomer charge product, R is the interfragment
 distance relative to van-der-Waals radii (-1.00 is printed if distances are
 not computed). dDIJ*VIJ is the explicit embedded charge transfer energy.
 Q(I->J) is the charge transfer amount, printed as zero if not available.
 Positive values correspond to I in IJ having extra negative charge.
 total = (EIJ-EI-EJ)+dDIJ*VIJ = Ees+Eex+Ect+mix+Edisp+Gsol (all are in kcal/mol).

    I    J DL  Z    R   Q(I->J)  EIJ-EI-EJ dDIJ*VIJ    total     Ees      Eex    Ect+mix   Erc+di    Gsol         
 ---------------------------------------------------------------------------------------------------------
    2    1 N1  0   0.69  0.0781   -15.366   -1.114   -16.481   -16.493    8.531   -8.519    0.000    0.000
    3    1 N1  0   0.69 -0.0760   -15.339   -0.936   -16.275   -16.278    8.225   -8.223    0.000    0.000
    3    2 N1  0   0.68  0.0782   -11.893   -2.069   -13.962   -14.704    9.218   -8.476    0.000    0.000

 Total energy of the molecule: Euncorr(2)=     -303.636093338

 Interaction energy relative to PL state:
 Eint = EES + EEX + E(CT+mix) + EDI
 Eint = E(FMO2) - E(FMO1) - E(BDA)
 Eint - interaction relative to PL state using PL state densities.

     Electrostatic (PL state, incl. EPLs)  EES         -47.474
     Exchange (PL state)                   EEX          25.974
     Charge transfer (PL state)        E(CT+mix)       -25.217
     Dispersion (PL state)                 EDI           0.000
         Total interaction (PL state)         Eint         -46.717

 Dipole moment D(xyz),DA(2)=    0.0231332   -0.0385767    0.0063665    0.0454295

 Charge transfer for each fragment:

  IFG QFG  DeltaQ     and its contributions from JFG, Q(JFG->IFG).
 ------------------------------------------------------------------------------
    1  0   0.0022 =    2->  0.0781    3-> -0.0760
    2  0   0.0000 =    3->  0.0782    1-> -0.0781
    3  0  -0.0022 =    2-> -0.0782    1->  0.0760

 Total absolute monomer transf. charge   =    0.004366
 Total amount of absolute transf. charge =    0.232274

                ONE ELECTRON ENERGY =         -700.0270337423
                TWO ELECTRON ENERGY =          255.6788299174
           NUCLEAR REPULSION ENERGY =          140.7121104864
                                      -----------------------
                       TOTAL ENERGY =         -303.6360933385

 ELECTRON-ELECTRON POTENTIAL ENERGY =          255.6788299174
  NUCLEUS-ELECTRON POTENTIAL ENERGY =        -1003.7607075804
   NUCLEUS-NUCLEUS POTENTIAL ENERGY =          140.7121104864
                                      -----------------------
             TOTAL POTENTIAL ENERGY =         -607.3697671766
               TOTAL KINETIC ENERGY =          303.7336738381
                 VIRIAL RATIO (V/T) =            1.9996787301

 n-body Mulliken  atomic charges Q(n)

    IAT  IFG   Z       Q(1)        Q(2)        Q(3)
     1    1   8.0   -0.735537   -0.777142
     2    1   1.0    0.375928    0.364514
     3    1   1.0    0.436733    0.420123
     4    1   8.0   -0.839570   -0.783406
     5    1   1.0    0.408766    0.416329
     6    1   1.0    0.353680    0.361753
     7    2   8.0   -0.798361   -0.781931
     8    2   1.0    0.431505    0.420442
     9    2   1.0    0.366856    0.361500
    10    3   8.0   -0.796601   -0.784335
    11    3   1.0    0.427509    0.419324
    12    3   1.0    0.369092    0.362828

 Done with FMO properties.
 STEP CPU TIME =     0.00 TOTAL CPU TIME =          1.0 (      0.0 MIN)
 TOTAL WALL CLOCK TIME=          1.0 SECONDS, CPU UTILIZATION IS    99.97%
 STEP CPU TIME =     0.00 TOTAL CPU TIME =          1.0 (      0.0 MIN)
 TOTAL WALL CLOCK TIME=          1.0 SECONDS, CPU UTILIZATION IS    99.97%

 Total timing statistics in pairs (CPU,wall) for each rank, sec

    Rank   total     SCF    corr     DFT    CPHF     EFP    solv     ESP    geom
 -------------------------------------------------------------------------------
       1       1.0      0.5      0.0      0.0    0.0   0.0    0.0     0.2    0.0
       1       1.0      0.5      0.0      0.0    0.0   0.0    0.0     0.2    0.0
averaged       1.0      0.5      0.0      0.0    0.0   0.0    0.0     0.2    0.0
averaged       1.0      0.5      0.0      0.0    0.0   0.0    0.0     0.2    0.0

  FMO  timing statistics in pairs (CPU,wall) for each rank, sec

    Rank  FMOini FMOscf1  FMOdm1 FMOsyn1 FMOscf2  FMOes2 FMOsyn2 FMOscf3 FMOsyn3
 -------------------------------------------------------------------------------
       1    0.1       0.6    0.0    0.0       0.3       0.0    0.0    0.0    0.0
       1    0.1       0.6    0.0    0.0       0.3       0.0    0.0    0.0    0.0
averaged    0.1       0.6    0.0    0.0       0.3       0.0    0.0    0.0    0.0
averaged    0.1       0.6    0.0    0.0       0.3       0.0    0.0    0.0    0.0
               580000  WORDS OF DYNAMIC MEMORY USED
 EXECUTION OF GAMESS TERMINATED NORMALLY 10:26:33 29-AUG-2025    
 DDI: 263640 bytes (0.3 MB / 0 MWords) used by master data server.

 ----------------------------------------
 CPU timing information for all processes
 ========================================
 0: 0.931 + 0.107 = 1.39
 ----------------------------------------
 ddikick.x: exited gracefully.
----- accounting info -----
Files used on the master node theomolsci-S2600STB were:
-rw-rw-r-- 1 theomolsci theomolsci 188673 Aug 29 10:26 /home/theomolsci/scr/water-4_RHF_621g_temp.dat
-rw-rw-r-- 1 theomolsci theomolsci   1469 Aug 29 10:26 /home/theomolsci/scr/water-4_RHF_621g_temp.F05
-rw-rw-r-- 1 theomolsci theomolsci 720064 Aug 29 10:26 /home/theomolsci/scr/water-4_RHF_621g_temp.F08
-rw-rw-r-- 1 theomolsci theomolsci  65440 Aug 29 10:26 /home/theomolsci/scr/water-4_RHF_621g_temp.F10
-rw-rw-r-- 1 theomolsci theomolsci 114688 Aug 29 10:26 /home/theomolsci/scr/water-4_RHF_621g_temp.F40
Friday 29 August 2025 10:26:36 AM IST
0.1u 0.0s 0:04.25 4.4% 0+0k 0+16io 0pf+0w
